/*--------------------------------*- C++ -*----------------------------------*\
| =========                 |                                                 |
| \\      /  F ield         | OpenFOAM: The Open Source CFD Toolbox           |
|  \\    /   O peration     | Version:  v2206                                 |
|   \\  /    A nd           | Website:  www.openfoam.com                      |
|    \\/     M anipulation  |                                                 |
\*---------------------------------------------------------------------------*/
FoamFile
{
    version     2.0;
    format      ascii;
    class       volScalarField;
    object      alphat;
}
// * * * * * * * * * * * * * * * * * * * * * * * * * * * * * * * * * * * * * //

dimensions      [ 1 -1 -1 0 0 0 0 ];

internalField   uniform 0;

boundaryField
{
    "empty.*"
    {
        type        empty;
    }
    bottom
    {
        type            calculated;
        value           $internalField;
    }

    outlet
    {
        type            calculated;
        value           $internalField;
    }

    "wall.*"
    {
        type            compressible::alphatWallFunction;
        Prt             0.85;
        value           $internalField;
    }
    "wedge.*"
    {
        type wedge;
    }
      pipe
  {
        $wall;
      }
    "proc.*"
    {
      type processor;
    }
}


// ************************************************************************* //
