/*--------------------------------*- C++ -*----------------------------------*\
| =========                 |                                                 |
| \\      /  F ield         | OpenFOAM: The Open Source CFD Toolbox           |
|  \\    /   O peration     | Version:  2206                                  |
|   \\  /    A nd           | Website:  www.openfoam.com                      |
|    \\/     M anipulation  |                                                 |
\*---------------------------------------------------------------------------*/
FoamFile
{
    version     2.0;
    format      ascii;
    arch        "LSB;label=32;scalar=64";
    class       volScalarField;
    location    "0";
    object      alphat;
}
// * * * * * * * * * * * * * * * * * * * * * * * * * * * * * * * * * * * * * //

dimensions      [1 -1 -1 0 0 0 0];

internalField   nonuniform List<scalar> 
31329
(
4.261147912e-13
4.435337061e-13
2.983067133e-14
5.918352225e-14
1.401874588e-13
2.233370153e-13
2.965540736e-13
3.421708124e-13
3.586992762e-13
3.664633524e-13
3.96995837e-13
4.625342863e-13
5.278910784e-13
5.253287924e-13
4.402342942e-13
3.273029585e-13
2.511595529e-13
2.385355972e-13
3.132320622e-13
5.151132145e-13
8.73657259e-13
1.347012002e-12
1.979959258e-12
2.442231139e-12
2.5395352e-12
2.875776724e-12
2.820913679e-12
2.83751464e-12
2.617790865e-12
2.578725727e-12
2.526223576e-12
2.224617282e-12
2.200363774e-12
1.85901172e-12
1.792062396e-12
1.770073853e-12
1.436407037e-12
1.368106343e-12
1.352178901e-12
1.313360156e-12
1.032041967e-12
9.888057286e-13
9.904185319e-13
9.762778588e-13
8.251764292e-13
7.997494294e-13
7.9786245e-13
8.073124494e-13
8.000637283e-13
7.927921818e-13
7.858477299e-13
8.076244474e-13
9.149522517e-13
9.243001361e-13
9.208268333e-13
9.546079628e-13
1.159193104e-12
1.191066778e-12
1.199189543e-12
1.223587502e-12
1.405300358e-12
1.446412387e-12
1.472861865e-12
1.449044868e-12
1.413624867e-12
1.405872478e-12
1.413223601e-12
1.381444895e-12
1.195063799e-12
1.15438617e-12
1.139369982e-12
1.125821984e-12
9.471706688e-13
9.131205181e-13
8.962706566e-13
8.926619095e-13
7.769384869e-13
7.588663553e-13
7.467627468e-13
7.466540208e-13
6.7889903e-13
6.728021125e-13
6.623832987e-13
6.645922575e-13
6.124396431e-13
6.101187791e-13
5.860114226e-13
6.034481074e-13
5.55211284e-13
5.545664772e-13
5.291961001e-13
5.49546335e-13
5.35743026e-13
5.077940505e-13
4.994653698e-13
5.042274153e-13
4.919637999e-13
4.605695965e-13
4.615194391e-13
4.559595006e-13
4.394975627e-13
3.924410971e-13
3.912926895e-13
3.853967799e-13
3.684843001e-13
3.176715251e-13
3.15981103e-13
3.108865619e-13
2.955736888e-13
2.610681923e-13
2.647132594e-13
2.562937792e-13
2.368608891e-13
2.053373572e-13
2.107197355e-13
2.021653445e-13
1.825551539e-13
1.758012701e-13
1.864541257e-13
1.775791272e-13
1.587676691e-13
1.866812247e-13
2.035524645e-13
1.964503425e-13
1.836082284e-13
2.997231236e-13
3.152475944e-13
3.246450319e-13
3.494099526e-13
7.970980575e-13
8.157670778e-13
8.39827843e-13
1.004031884e-12
2.601976572e-12
2.775342184e-12
2.761004534e-12
3.219829716e-12
6.704499064e-12
7.269998983e-12
7.460830596e-12
8.221596068e-12
1.285308075e-11
1.326002128e-11
1.355665835e-11
1.723072134e-11
1.744186996e-11
2.003665532e-11
2.049720895e-11
2.114824192e-11
2.414262298e-11
2.573628584e-11
3.067622091e-11
4.018776667e-11
4.274787388e-11
5.650506308e-11
7.784974646e-11
1.038455446e-10
1.245331973e-10
1.33523402e-10
1.189236428e-10
8.655067418e-11
5.080914846e-11
2.44872078e-11
1.010731474e-11
3.762842887e-12
1.320095094e-12
4.520557258e-13
1.567415343e-13
5.497018303e-14
2.139737923e-14
9.119455897e-15
4.299828743e-15
2.2125766e-15
1.127286234e-15
4.636904679e-16
1.217072822e-16
1.762830822e-17
5.399275239e-13
4.239229421e-13
7.983889578e-14
6.248092715e-14
1.313435091e-13
2.085736281e-13
2.770809424e-13
3.203777667e-13
3.371164839e-13
3.463080178e-13
3.775158079e-13
4.45457764e-13
5.201082159e-13
5.413593847e-13
5.505884373e-13
5.215364939e-13
5.326509108e-13
5.690168235e-13
7.379945484e-13
1.015520058e-12
1.475042777e-12
2.071384809e-12
4.460650519e-12
4.765093957e-12
4.947463232e-12
5.53234146e-12
4.609735336e-12
4.451650776e-12
4.065166258e-12
4.377617411e-12
4.147260819e-12
3.655355931e-12
3.658690886e-12
2.791478157e-12
2.996742631e-12
2.90744804e-12
2.136057737e-12
2.260824248e-12
2.262855706e-12
2.080797837e-12
1.541183979e-12
1.595282677e-12
1.558504809e-12
1.457816771e-12
1.0599738e-12
1.081869569e-12
1.079473666e-12
1.043104832e-12
9.150478057e-13
9.349024696e-13
9.413394214e-13
9.319800098e-13
9.972572525e-13
1.028011719e-12
1.036525224e-12
1.039342092e-12
1.258935395e-12
1.31207922e-12
1.330916647e-12
1.324560871e-12
1.554056369e-12
1.625694178e-12
1.660466978e-12
1.617171405e-12
1.723686758e-12
1.794807348e-12
1.827388901e-12
1.762522467e-12
1.689337522e-12
1.770223889e-12
1.788378826e-12
1.731153212e-12
1.53480494e-12
1.632618839e-12
1.626123684e-12
1.600880774e-12
1.407622491e-12
1.521924328e-12
1.46563414e-12
1.500364953e-12
1.363099829e-12
1.49587636e-12
1.320620571e-12
1.482187184e-12
1.368476132e-12
1.51888484e-12
1.008434429e-12
1.511616487e-12
1.348444947e-12
1.476663257e-12
9.615600556e-13
1.476246822e-12
1.311838473e-12
1.340834796e-12
1.173944174e-12
1.346198478e-12
1.196832453e-12
1.124283403e-12
1.0929717e-12
1.131994589e-12
1.009895836e-12
1.013516787e-12
1.030199556e-12
1.024377354e-12
9.104771506e-13
9.875098234e-13
1.03262638e-12
1.005574017e-12
8.890464088e-13
1.174372352e-12
1.264739933e-12
1.209324036e-12
1.051089401e-12
1.491217961e-12
1.638522898e-12
1.551918989e-12
1.335877356e-12
1.888868204e-12
2.107435766e-12
1.986368711e-12
1.702854398e-12
2.336765691e-12
2.627178722e-12
2.47866945e-12
2.134082453e-12
3.146052062e-12
3.536664374e-12
3.37019822e-12
2.980808402e-12
4.990453905e-12
5.625695297e-12
5.659229168e-12
5.198385178e-12
1.022761069e-11
1.163584861e-11
1.215512005e-11
1.132901777e-11
2.128802326e-11
2.442445295e-11
2.436758059e-11
2.193175707e-11
3.869440627e-11
4.063369892e-11
3.536327214e-11
4.651520252e-11
4.632721832e-11
4.532917863e-11
4.815940182e-11
4.376871607e-11
4.391557132e-11
4.534000961e-11
5.505253425e-11
6.242978299e-11
6.329530006e-11
8.390602105e-11
9.185003216e-11
1.203800668e-10
1.439688819e-10
1.536557502e-10
1.394144746e-10
1.020948135e-10
6.060976331e-11
2.983279713e-11
1.285092078e-11
5.113638093e-12
1.978397644e-12
7.710587198e-13
3.105014046e-13
9.215136928e-14
4.152354514e-14
1.94309959e-14
9.220571001e-15
4.331095758e-15
1.899442072e-15
7.061532015e-16
1.714722608e-16
1.199224407e-16
1.27925854e-13
1.519267231e-13
1.061121571e-13
8.049241346e-14
1.325283215e-13
2.08542924e-13
2.835837357e-13
3.431642294e-13
3.895085462e-13
4.485661868e-13
5.466345769e-13
7.839986027e-13
1.194083008e-12
1.804089765e-12
3.109760258e-12
4.403802563e-12
5.761359682e-12
6.756592973e-12
8.016888012e-12
9.333665578e-12
1.129846067e-11
1.369740398e-11
3.30172172e-11
3.248324992e-11
3.371909885e-11
3.633361403e-11
2.7316357e-11
2.434709192e-11
2.280312923e-11
2.544538905e-11
2.398284263e-11
2.097461957e-11
2.111303614e-11
1.499053832e-11
1.733835512e-11
1.659849833e-11
1.141169998e-11
1.301557971e-11
1.310810447e-11
1.149655379e-11
8.089864787e-12
8.802378459e-12
8.454856604e-12
7.493180588e-12
4.341608688e-12
4.650606078e-12
4.630693424e-12
4.215675307e-12
2.748756441e-12
2.955284354e-12
3.029758082e-12
2.833329114e-12
2.44440299e-12
2.666479217e-12
2.743087666e-12
2.602275406e-12
2.776367031e-12
3.048968598e-12
3.140890205e-12
3.001850941e-12
3.831709666e-12
4.243751325e-12
4.367051668e-12
4.185688437e-12
6.045292017e-12
6.828505239e-12
7.023737282e-12
6.700242873e-12
8.202276632e-12
9.329475136e-12
9.462538453e-12
9.13831965e-12
9.046772211e-12
1.027420319e-11
1.008505064e-11
1.009211411e-11
9.305105347e-12
1.057652375e-11
9.768234323e-12
1.044418974e-11
9.790704979e-12
1.117349582e-11
9.076316787e-12
1.109933768e-11
1.057206659e-11
1.211989986e-11
6.834519305e-12
1.209614337e-11
1.065436566e-11
1.220520245e-11
6.876256606e-12
1.222566174e-11
1.064285532e-11
1.103867497e-11
9.015498324e-12
1.109260239e-11
9.632677588e-12
8.908317512e-12
8.285591396e-12
8.992205734e-12
7.878324626e-12
8.289832811e-12
8.253072815e-12
8.439085962e-12
7.427268233e-12
8.807854716e-12
9.094906896e-12
9.048753211e-12
8.049398615e-12
1.17386599e-11
1.246784485e-11
1.217072327e-11
1.082097807e-11
1.660653381e-11
1.795422994e-11
1.732476069e-11
1.533542601e-11
2.198284791e-11
2.402375117e-11
2.304861617e-11
2.035702327e-11
2.75837287e-11
3.030342979e-11
2.906756886e-11
2.578220543e-11
3.669552331e-11
4.042094657e-11
3.898564252e-11
3.5176525e-11
5.512216338e-11
6.157229768e-11
6.186592684e-11
5.684397473e-11
1.000698434e-10
1.136245384e-10
1.183444329e-10
1.092264625e-10
1.910067509e-10
2.198655697e-10
2.187734898e-10
1.922520167e-10
3.32859739e-10
3.498689721e-10
2.966383148e-10
3.801544577e-10
3.77162373e-10
3.427282798e-10
3.592451396e-10
3.190710329e-10
2.752949979e-10
2.910079627e-10
3.346996227e-10
3.303974905e-10
3.241876203e-10
4.089083216e-10
3.174068277e-10
4.031925596e-10
4.900330523e-10
5.329711113e-10
5.270175076e-10
4.053628786e-10
2.55442012e-10
1.363939074e-10
6.659011906e-11
3.102746687e-11
1.445572422e-11
6.830175123e-12
3.288607077e-12
1.297236526e-12
6.568099489e-13
3.270274093e-13
1.552510753e-13
6.718610274e-14
2.392309409e-14
5.31524328e-15
7.360314072e-16
4.815216504e-16
6.995002069e-14
7.805729505e-14
9.361047169e-14
1.126061801e-13
1.848350874e-13
3.181411299e-13
5.048209859e-13
7.527831981e-13
1.105921459e-12
1.686602135e-12
2.711601971e-12
4.802593846e-12
8.783353285e-12
1.554326253e-11
2.777774537e-11
4.095331902e-11
5.402912544e-11
6.369965003e-11
7.275590944e-11
8.196222751e-11
9.57038879e-11
1.119079753e-10
2.249161172e-10
2.247250829e-10
2.317430488e-10
2.429915885e-10
1.893937029e-10
1.645028532e-10
1.566996978e-10
1.668030037e-10
1.618495269e-10
1.393550643e-10
1.398850816e-10
1.015455986e-10
1.141607022e-10
1.100997377e-10
7.728349041e-11
8.597764207e-11
8.6371152e-11
7.686293226e-11
5.355188263e-11
5.701347964e-11
5.522313674e-11
4.935907928e-11
2.755246604e-11
2.887100053e-11
2.870304833e-11
2.631752391e-11
1.602931054e-11
1.698060564e-11
1.722763429e-11
1.620151958e-11
1.300529029e-11
1.41617411e-11
1.447363316e-11
1.370390485e-11
1.379526014e-11
1.51672209e-11
1.546286605e-11
1.492493018e-11
2.039261607e-11
2.271681026e-11
2.305540705e-11
2.265104509e-11
3.668852863e-11
4.1591728e-11
4.219957995e-11
4.123796546e-11
5.383864856e-11
6.090333691e-11
6.081175478e-11
6.007619301e-11
6.175200013e-11
6.909320144e-11
6.655651424e-11
6.818917867e-11
6.477949805e-11
7.218046347e-11
6.553112183e-11
7.152752958e-11
6.894133099e-11
7.699014572e-11
6.252559085e-11
7.668999274e-11
7.494930474e-11
8.401853595e-11
5.194532768e-11
8.39666795e-11
7.598576805e-11
8.492171684e-11
5.259687983e-11
8.500150795e-11
7.576573464e-11
7.675268497e-11
6.27560261e-11
7.689476709e-11
6.822533808e-11
6.195125856e-11
5.636918915e-11
6.227371465e-11
5.593892202e-11
5.788905182e-11
5.621151376e-11
5.874551288e-11
5.314459301e-11
6.222256681e-11
6.257633312e-11
6.377038067e-11
5.865592095e-11
8.384972443e-11
8.682854427e-11
8.67582786e-11
7.999444971e-11
1.208220226e-10
1.275989137e-10
1.256215181e-10
1.149506459e-10
1.605341628e-10
1.712440298e-10
1.673472186e-10
1.526158513e-10
2.020211534e-10
2.164291501e-10
2.11306247e-10
1.937308693e-10
2.688115541e-10
2.888022398e-10
2.831420471e-10
2.638419239e-10
4.042543309e-10
4.417935447e-10
4.441913784e-10
4.210295243e-10
7.204039228e-10
8.010945155e-10
8.2329356e-10
7.868195131e-10
1.351092138e-09
1.521826296e-09
1.520056153e-09
1.390426224e-09
2.285748362e-09
2.381448073e-09
2.090907499e-09
2.582656517e-09
2.566349125e-09
2.349548386e-09
2.383437526e-09
2.204971395e-09
1.83030633e-09
1.981500624e-09
2.146641393e-09
2.11677187e-09
2.082879041e-09
2.526047987e-09
2.043177422e-09
2.617257094e-09
3.264678706e-09
3.666820878e-09
3.803467694e-09
3.032326486e-09
1.973437829e-09
1.088826979e-09
5.501527395e-10
2.652789489e-10
1.278311354e-10
6.225311102e-11
3.077590113e-11
1.386492598e-11
7.004936408e-12
3.455296671e-12
1.594898575e-12
6.321438233e-13
1.755298806e-13
2.416280159e-14
2.168590538e-15
1.320165908e-15
1.594611714e-13
1.553426226e-13
1.662914406e-13
2.214160084e-13
4.461729363e-13
9.771873306e-13
1.89838821e-12
3.345070602e-12
5.632302369e-12
9.513857575e-12
1.657102071e-11
3.054379495e-11
5.730738342e-11
1.031805867e-10
1.787368318e-10
2.620890129e-10
3.425649198e-10
4.028301627e-10
4.506702838e-10
5.019527334e-10
5.800261044e-10
6.704109256e-10
1.166659562e-09
1.190280288e-09
1.220895295e-09
1.25584021e-09
1.018715604e-09
8.7939672e-10
8.420285968e-10
8.599132527e-10
8.545173515e-10
7.272142046e-10
7.278101776e-10
5.42291889e-10
5.905460988e-10
5.740812929e-10
4.126159044e-10
4.460311644e-10
4.467867262e-10
4.045767499e-10
2.80909258e-10
2.917519245e-10
2.853176625e-10
2.585094225e-10
1.445210297e-10
1.475283323e-10
1.465247844e-10
1.364984196e-10
8.358949812e-11
8.64380527e-11
8.650185897e-11
8.290222784e-11
6.67104821e-11
7.122959345e-11
7.186380712e-11
6.924995569e-11
6.957874527e-11
7.510283231e-11
7.53991315e-11
7.456660609e-11
1.0488483e-10
1.152325442e-10
1.151457868e-10
1.162714795e-10
1.919492643e-10
2.149308745e-10
2.150420223e-10
2.149835344e-10
2.841723634e-10
3.166925673e-10
3.118903957e-10
3.141361321e-10
3.283587913e-10
3.605949339e-10
3.427315813e-10
3.571848666e-10
3.457938993e-10
3.77529054e-10
3.40047912e-10
3.751293962e-10
3.686361066e-10
4.033541738e-10
3.314211633e-10
4.025902355e-10
4.002410307e-10
4.396339592e-10
2.964118849e-10
4.397347731e-10
4.029055277e-10
4.442246356e-10
3.000501291e-10
4.442933688e-10
4.040979681e-10
4.0093077e-10
3.314643268e-10
4.006452654e-10
3.622951993e-10
3.248409662e-10
2.920589498e-10
3.25376644e-10
2.985660817e-10
3.042099549e-10
2.901029408e-10
3.077774979e-10
2.847948619e-10
3.28472987e-10
3.23532245e-10
3.358114575e-10
3.169769754e-10
4.438364238e-10
4.502727345e-10
4.583222727e-10
4.343416576e-10
6.438811369e-10
6.672713823e-10
6.675741534e-10
6.26095464e-10
8.55629174e-10
8.95109921e-10
8.878820281e-10
8.292871711e-10
1.078340161e-09
1.132331498e-09
1.121472072e-09
1.053907673e-09
1.435515739e-09
1.511848242e-09
1.502171722e-09
1.43441482e-09
2.162730888e-09
2.32327058e-09
2.337190379e-09
2.270354503e-09
3.813472233e-09
4.169160354e-09
4.236128817e-09
4.169131936e-09
7.053510131e-09
7.800466114e-09
7.817433629e-09
7.393245716e-09
1.160227703e-08
1.199211944e-08
1.086355659e-08
1.301028445e-08
1.294868815e-08
1.197830419e-08
1.185803896e-08
1.134569965e-08
9.304587041e-09
1.017190421e-08
1.052837628e-08
1.054613833e-08
1.044585236e-08
1.23684351e-08
1.10494163e-08
1.43894397e-08
1.835574038e-08
2.115767361e-08
2.259069087e-08
1.840156792e-08
1.214180541e-08
6.77468824e-09
3.434466029e-09
1.655941215e-09
7.972732319e-10
3.878765404e-10
1.916039779e-10
9.479891476e-11
4.485977975e-11
2.134914834e-11
9.057841955e-12
2.975407708e-12
6.117171383e-13
6.471507531e-14
4.826054753e-15
2.932856307e-15
3.667880778e-13
3.489257776e-13
3.545800048e-13
4.774971884e-13
1.152659776e-12
3.234784067e-12
7.506100681e-12
1.464151223e-11
2.61218088e-11
4.572423599e-11
8.189299132e-11
1.526301789e-10
2.87722873e-10
5.188204026e-10
8.787083168e-10
1.276075121e-09
1.649261326e-09
1.925249071e-09
2.126213378e-09
2.3556336e-09
2.711157145e-09
3.117213381e-09
4.909488434e-09
5.098829544e-09
5.209699691e-09
5.284779253e-09
4.421429407e-09
3.815811808e-09
3.655939625e-09
3.622814727e-09
3.663429142e-09
3.092722471e-09
3.088180428e-09
2.346781785e-09
2.49418351e-09
2.440322389e-09
1.783993305e-09
1.88702477e-09
1.885868363e-09
1.730688687e-09
1.197032781e-09
1.218810373e-09
1.201673423e-09
1.100430978e-09
6.172284023e-10
6.175452856e-10
6.129160448e-10
5.784355135e-10
3.585475329e-10
3.640685481e-10
3.60269588e-10
3.509084877e-10
2.853927177e-10
2.998830805e-10
2.992140124e-10
2.929999094e-10
2.965718024e-10
3.151738433e-10
3.123633006e-10
3.15397328e-10
4.516006246e-10
4.902864276e-10
4.838181464e-10
4.990710697e-10
8.275576274e-10
9.169690409e-10
9.070609535e-10
9.229114636e-10
1.223150097e-09
1.346848461e-09
1.312010611e-09
1.341289615e-09
1.415685381e-09
1.532779962e-09
1.44274471e-09
1.522279235e-09
1.492408472e-09
1.604993038e-09
1.439454099e-09
1.597924568e-09
1.591804926e-09
1.716029357e-09
1.426654481e-09
1.715192936e-09
1.72382036e-09
1.865403256e-09
1.339498006e-09
1.866846958e-09
1.737562156e-09
1.88228967e-09
1.354040764e-09
1.881350692e-09
1.73613717e-09
1.694361952e-09
1.416644478e-09
1.689893495e-09
1.549739831e-09
1.378575373e-09
1.230727084e-09
1.377361143e-09
1.28364159e-09
1.295129447e-09
1.219115184e-09
1.307481163e-09
1.229808959e-09
1.404935222e-09
1.362094161e-09
1.43377279e-09
1.378537159e-09
1.902945595e-09
1.899927325e-09
1.962203539e-09
1.895896246e-09
2.768177143e-09
2.826290488e-09
2.864001757e-09
2.733140687e-09
3.672912933e-09
3.783517736e-09
3.798375275e-09
3.608905988e-09
4.630240316e-09
4.786204967e-09
4.795141611e-09
4.586807003e-09
6.157796634e-09
6.385192422e-09
6.412412767e-09
6.231441061e-09
9.251947434e-09
9.811702531e-09
9.87407634e-09
9.763326654e-09
1.607457011e-08
1.734557699e-08
1.746255253e-08
1.757573481e-08
2.920299917e-08
3.183193367e-08
3.19812426e-08
3.099334931e-08
4.667568977e-08
4.791903712e-08
4.449328581e-08
5.196199657e-08
5.177765962e-08
4.822761214e-08
4.696096764e-08
4.598969156e-08
3.76085482e-08
4.114980983e-08
4.120263701e-08
4.197418554e-08
4.180499966e-08
4.896153997e-08
4.763449379e-08
6.327878856e-08
8.2716565e-08
9.802496078e-08
1.067840055e-07
8.805807853e-08
5.855189289e-08
3.292575176e-08
1.6684905e-08
7.992169451e-09
3.807969921e-09
1.829595846e-09
8.908235179e-10
4.334688007e-10
2.008104445e-10
8.800722536e-11
3.206577928e-11
8.50478555e-12
1.454850116e-12
1.4137583e-13
9.868117761e-15
5.693976471e-15
7.414498585e-13
6.999322473e-13
6.993828767e-13
9.550451149e-13
2.58710223e-12
8.736127739e-12
2.420260792e-11
5.311484152e-11
1.010320821e-10
1.829851667e-10
3.349635225e-10
6.297765041e-10
1.189857851e-09
2.14245025e-09
3.566626511e-09
5.119409531e-09
6.530726775e-09
7.543219622e-09
8.258378673e-09
9.134328846e-09
1.050719407e-08
1.20565492e-08
1.769944486e-08
1.867352158e-08
1.902671555e-08
1.910351151e-08
1.636630488e-08
1.415198281e-08
1.354684226e-08
1.313295388e-08
1.345336446e-08
1.129474827e-08
1.125848531e-08
8.681039474e-09
9.057087508e-09
8.908833947e-09
6.588275772e-09
6.856169832e-09
6.839188939e-09
6.340366352e-09
4.362457698e-09
4.370986147e-09
4.339875029e-09
4.006539298e-09
2.250417151e-09
2.217206077e-09
2.199435195e-09
2.097011907e-09
1.315020071e-09
1.317882307e-09
1.292246109e-09
1.275253984e-09
1.047832273e-09
1.088098532e-09
1.075644647e-09
1.067399039e-09
1.089570254e-09
1.144485504e-09
1.122175942e-09
1.15252453e-09
1.675122554e-09
1.802855343e-09
1.760946096e-09
1.847156255e-09
3.069445487e-09
3.374653803e-09
3.306987391e-09
3.411497269e-09
4.516176541e-09
4.927491982e-09
4.757546409e-09
4.921196946e-09
5.224536565e-09
5.597200225e-09
5.229870944e-09
5.569485329e-09
5.507640182e-09
5.857722857e-09
5.240795925e-09
5.840435443e-09
5.876459649e-09
6.267141129e-09
5.264646876e-09
6.27029966e-09
6.342731395e-09
6.788021584e-09
5.103913301e-09
6.79551128e-09
6.420817462e-09
6.834434833e-09
5.148724726e-09
6.827086991e-09
6.366080528e-09
6.126749394e-09
5.174725745e-09
6.101472275e-09
5.654888029e-09
5.008694737e-09
4.452802147e-09
4.995459775e-09
4.709574133e-09
4.726939747e-09
4.407054233e-09
4.764935914e-09
4.536628997e-09
5.157077291e-09
4.938735613e-09
5.256527082e-09
5.122529594e-09
7.003038088e-09
6.90334883e-09
7.213294643e-09
7.066782286e-09
1.017965614e-08
1.026737579e-08
1.051433621e-08
1.01608921e-08
1.345237484e-08
1.368183266e-08
1.387419289e-08
1.335097481e-08
1.692410151e-08
1.726984757e-08
1.746849225e-08
1.693227524e-08
2.240339172e-08
2.29374852e-08
2.323792583e-08
2.2877453e-08
3.330727886e-08
3.495988655e-08
3.518844558e-08
3.525534977e-08
5.658433549e-08
6.039492174e-08
6.034420375e-08
6.180177155e-08
1.005276761e-07
1.082577693e-07
1.089704819e-07
1.075647334e-07
1.566380151e-07
1.598791348e-07
1.513806396e-07
1.735434678e-07
1.730744703e-07
1.620408806e-07
1.561142785e-07
1.552297262e-07
1.273302317e-07
1.389295954e-07
1.364797018e-07
1.416888869e-07
1.41779811e-07
1.664407448e-07
1.732308266e-07
2.351482314e-07
3.134757734e-07
3.779144018e-07
4.043304138e-07
3.302145222e-07
2.188537582e-07
1.241189862e-07
6.38301477e-08
3.082059691e-08
1.462895681e-08
6.921017099e-09
3.279651657e-09
1.527884944e-09
6.618587398e-10
2.553926259e-10
7.903749225e-11
1.815380743e-11
2.865868963e-12
2.692875638e-13
1.768731796e-14
9.746937221e-15
1.369026703e-12
1.287761647e-12
1.277808522e-12
1.770971804e-12
5.203510125e-12
1.98489591e-11
6.407171701e-11
1.609872252e-10
3.332152988e-10
6.309552631e-10
1.183072656e-09
2.246110662e-09
4.251779458e-09
7.631717323e-09
1.251247847e-08
1.772024139e-08
2.22769408e-08
2.542769142e-08
2.769885086e-08
3.070184865e-08
3.541492326e-08
4.066537219e-08
5.680907617e-08
6.082749927e-08
6.186009102e-08
6.159527816e-08
5.374993578e-08
4.660519713e-08
4.454616428e-08
4.248671821e-08
4.395313574e-08
3.674332868e-08
3.657435936e-08
2.850475286e-08
2.930217677e-08
2.895637834e-08
2.157733248e-08
2.216771989e-08
2.207726553e-08
2.063205006e-08
1.409731265e-08
1.393208397e-08
1.392004716e-08
1.293388308e-08
7.262282462e-09
7.066714502e-09
7.007139897e-09
6.73751461e-09
4.272585545e-09
4.240859418e-09
4.12643534e-09
4.116857985e-09
3.414770818e-09
3.514443827e-09
3.446564518e-09
3.458994587e-09
3.562035454e-09
3.708311098e-09
3.602753407e-09
3.75407532e-09
5.536339564e-09
5.920427778e-09
5.733219771e-09
6.096953399e-09
1.014846662e-08
1.109222651e-08
1.078472911e-08
1.124918816e-08
1.483358665e-08
1.60659544e-08
1.539913967e-08
1.607975948e-08
1.712879243e-08
1.819980212e-08
1.69121455e-08
1.813602373e-08
1.804528249e-08
1.902839274e-08
1.700688003e-08
1.899401938e-08
1.925978633e-08
2.037332561e-08
1.727839833e-08
2.039811121e-08
2.070109031e-08
2.196228609e-08
1.71107349e-08
2.199015915e-08
2.087940823e-08
2.204249137e-08
1.721292082e-08
2.200632266e-08
2.068016868e-08
1.964284613e-08
1.674961079e-08
1.953750578e-08
1.826235182e-08
1.615151685e-08
1.43306413e-08
1.608903727e-08
1.530710751e-08
1.533148707e-08
1.419491094e-08
1.543904504e-08
1.484172017e-08
1.684101037e-08
1.597372427e-08
1.715124304e-08
1.688950747e-08
2.290622062e-08
2.234984482e-08
2.357219863e-08
2.333396444e-08
3.311130394e-08
3.305787054e-08
3.414626454e-08
3.33200951e-08
4.337756915e-08
4.363926508e-08
4.462667979e-08
4.338821373e-08
5.420625052e-08
5.470582999e-08
5.577863986e-08
5.465131035e-08
7.094583072e-08
7.185234546e-08
7.331143925e-08
7.291962227e-08
1.03308849e-07
1.074298479e-07
1.081326563e-07
1.094713441e-07
1.708170554e-07
1.805258044e-07
1.792797072e-07
1.861214823e-07
2.970346615e-07
3.16529766e-07
3.190896557e-07
3.196221713e-07
4.56857737e-07
4.640815297e-07
4.460694122e-07
5.061333635e-07
5.050837237e-07
4.759308741e-07
4.552296648e-07
4.57431365e-07
3.784280293e-07
4.127725252e-07
4.024471514e-07
4.285515008e-07
4.307465705e-07
5.088956895e-07
5.568376071e-07
7.627833554e-07
1.000015692e-06
1.165031249e-06
1.142501679e-06
8.944277266e-07
5.759455135e-07
3.287000434e-07
1.757293587e-07
8.856603073e-08
4.321912185e-08
2.047730246e-08
9.429851391e-09
4.131368558e-09
1.629978101e-09
5.565178698e-10
1.543220421e-10
3.311979079e-11
5.077521924e-12
4.708473483e-13
2.871274946e-14
1.445457284e-14
2.387692344e-12
2.241843171e-12
2.220672861e-12
3.15657945e-12
9.922353136e-12
4.10381909e-11
1.484901079e-10
4.23907855e-10
9.646443639e-10
1.925692287e-09
3.708557951e-09
7.116420433e-09
1.35015226e-08
2.439726224e-08
3.899064363e-08
5.442989248e-08
6.737506072e-08
7.610786049e-08
8.288805905e-08
9.254200051e-08
1.074481239e-07
1.237597544e-07
1.671083526e-07
1.814410989e-07
1.842885566e-07
1.819256643e-07
1.610411948e-07
1.40021886e-07
1.335817722e-07
1.258327241e-07
1.311633572e-07
1.09137934e-07
1.085059034e-07
8.519461563e-08
8.648053639e-08
8.581864802e-08
6.421884081e-08
6.526167861e-08
6.489887738e-08
6.105986865e-08
4.134772357e-08
4.036135077e-08
4.055707701e-08
3.789086771e-08
2.124252248e-08
2.045106493e-08
2.027130523e-08
1.963690857e-08
1.259823487e-08
1.241379626e-08
1.199959849e-08
1.208420539e-08
1.011435285e-08
1.033566458e-08
1.006555392e-08
1.020216988e-08
1.060956132e-08
1.096673823e-08
1.056997855e-08
1.115452377e-08
1.670112084e-08
1.777297357e-08
1.708641165e-08
1.838084038e-08
3.063689509e-08
3.333209565e-08
3.21996566e-08
3.388383264e-08
4.437760216e-08
4.775951602e-08
4.551379029e-08
4.788074398e-08
5.109038865e-08
5.391339661e-08
4.991323542e-08
5.378744405e-08
5.375376276e-08
5.628177482e-08
5.032933269e-08
5.623455654e-08
5.737952252e-08
6.029811163e-08
5.163937063e-08
6.040297434e-08
6.134197676e-08
6.459777582e-08
5.185045272e-08
6.468141218e-08
6.184128142e-08
6.454005251e-08
5.196178278e-08
6.43939931e-08
6.088483599e-08
5.703469898e-08
4.912754566e-08
5.666410255e-08
5.336690261e-08
4.723262135e-08
4.192876115e-08
4.700907414e-08
4.507502267e-08
4.512731965e-08
4.160163283e-08
4.541084409e-08
4.402230335e-08
4.992467723e-08
4.702523601e-08
5.081044891e-08
5.047507568e-08
6.779000477e-08
6.563547e-08
6.969132989e-08
6.955870776e-08
9.667658384e-08
9.574241554e-08
9.95192999e-08
9.790858319e-08
1.245580396e-07
1.241778492e-07
1.277923485e-07
1.253980138e-07
1.534131736e-07
1.533886757e-07
1.573276217e-07
1.55633314e-07
1.967701753e-07
1.974549411e-07
2.024720736e-07
2.031439926e-07
2.789326723e-07
2.874159556e-07
2.892599577e-07
2.954541217e-07
4.501597359e-07
4.71442619e-07
4.660204337e-07
4.890778368e-07
7.776343768e-07
8.215604365e-07
8.293701047e-07
8.412447846e-07
1.203972763e-06
1.218566084e-06
1.184199593e-06
1.339605292e-06
1.337643823e-06
1.274925534e-06
1.211857456e-06
1.229903123e-06
1.030562107e-06
1.126980574e-06
1.100849495e-06
1.20135885e-06
1.212756572e-06
1.420307211e-06
1.599592938e-06
2.112763504e-06
2.52174028e-06
2.655504053e-06
2.347171246e-06
1.728150532e-06
1.040358913e-06
5.931508776e-07
3.334615736e-07
1.770229585e-07
9.090273248e-08
4.438204093e-08
2.030453187e-08
8.512230693e-09
3.134016925e-09
9.960771322e-10
2.626299195e-10
5.493217945e-11
8.329081287e-12
7.64809774e-13
4.200885417e-14
1.809550198e-14
4.041084832e-12
3.789849659e-12
3.757740376e-12
5.525048874e-12
1.853709049e-11
8.145883372e-11
3.202428302e-10
1.015007685e-09
2.524188194e-09
5.317207354e-09
1.052076218e-08
2.042065923e-08
3.88662975e-08
6.968906791e-08
1.102090879e-07
1.517199068e-07
1.850637879e-07
2.077298855e-07
2.273711307e-07
2.574975743e-07
3.018307148e-07
3.492317498e-07
4.60888159e-07
5.060158723e-07
5.134422599e-07
5.015692643e-07
4.494536948e-07
3.916331823e-07
3.722102693e-07
3.472474223e-07
3.639746514e-07
3.009852282e-07
2.988957249e-07
2.355721746e-07
2.364033842e-07
2.354918805e-07
1.763758779e-07
1.774543934e-07
1.762090038e-07
1.667778641e-07
1.116732643e-07
1.07766359e-07
1.088396219e-07
1.021952488e-07
5.71756955e-08
5.451917632e-08
5.402165092e-08
5.269376512e-08
3.423753988e-08
3.354496928e-08
3.22477159e-08
3.273700643e-08
2.766140106e-08
2.809801631e-08
2.719962837e-08
2.78111704e-08
2.925550038e-08
3.006284464e-08
2.877904025e-08
3.07151792e-08
4.675185869e-08
4.956418196e-08
4.736562666e-08
5.144923776e-08
8.577146752e-08
9.296306039e-08
8.936297185e-08
9.466733769e-08
1.227187755e-07
1.3128115e-07
1.245972138e-07
1.31795056e-07
1.40658437e-07
1.475223049e-07
1.36349826e-07
1.473238671e-07
1.476336274e-07
1.535949819e-07
1.377113159e-07
1.535987463e-07
1.574983779e-07
1.645491461e-07
1.425193292e-07
1.648973489e-07
1.67185993e-07
1.748383385e-07
1.44273045e-07
1.750433307e-07
1.68369649e-07
1.734834299e-07
1.43795876e-07
1.72958589e-07
1.64385158e-07
1.5154042e-07
1.321299398e-07
1.50377939e-07
1.426814572e-07
1.265521904e-07
1.127871344e-07
1.258711198e-07
1.215782627e-07
1.216175328e-07
1.120190764e-07
1.223042888e-07
1.195287221e-07
1.353142177e-07
1.27014234e-07
1.376159152e-07
1.377919491e-07
1.821418945e-07
1.756108621e-07
1.869917044e-07
1.879312999e-07
2.532565075e-07
2.495474147e-07
2.600711489e-07
2.577446497e-07
3.174247459e-07
3.144219686e-07
3.245292342e-07
3.212328936e-07
3.818691788e-07
3.791711326e-07
3.899949063e-07
3.891917392e-07
4.768313642e-07
4.750307875e-07
4.882762466e-07
4.937791766e-07
6.629566842e-07
6.774167883e-07
6.816619837e-07
7.015415947e-07
1.056998417e-06
1.098168855e-06
1.081400164e-06
1.147105482e-06
1.876146769e-06
1.971476003e-06
1.993403443e-06
2.043954154e-06
2.944084568e-06
2.971802056e-06
2.91461936e-06
3.289058591e-06
3.287054978e-06
3.182580629e-06
3.01572215e-06
3.087032227e-06
2.638832277e-06
2.885687889e-06
2.821047387e-06
3.097350202e-06
3.134864136e-06
3.534091878e-06
3.963409132e-06
4.67402656e-06
4.945743748e-06
4.742908019e-06
3.87134505e-06
2.75508708e-06
1.582445443e-06
8.676762421e-07
4.944197376e-07
2.750732301e-07
1.456812282e-07
7.320336635e-08
3.390876632e-08
1.409826434e-08
5.076390067e-09
1.577347712e-09
4.098854062e-10
8.514321982e-11
1.286661974e-11
1.173124243e-12
5.669412108e-14
1.86325212e-14
6.753342436e-12
6.328084605e-12
6.292151038e-12
9.638979414e-12
3.456220053e-11
1.598165582e-10
6.690101148e-10
2.296091049e-09
6.137286066e-09
1.355465397e-08
2.747768782e-08
5.400613942e-08
1.033462568e-07
1.843617451e-07
2.887468652e-07
3.924628406e-07
4.732823702e-07
5.302692589e-07
5.877823333e-07
6.786039667e-07
8.035467157e-07
9.335546689e-07
1.209384377e-06
1.333990376e-06
1.351754334e-06
1.305540231e-06
1.182937494e-06
1.034741145e-06
9.757369864e-07
9.029411817e-07
9.498253549e-07
7.787521183e-07
7.723846898e-07
6.087150027e-07
6.041312285e-07
6.038386349e-07
4.510668196e-07
4.493470604e-07
4.455154948e-07
4.240041498e-07
2.801369752e-07
2.674553192e-07
2.712678255e-07
2.559440579e-07
1.429576864e-07
1.35125439e-07
1.338478201e-07
1.314157668e-07
8.660153084e-08
8.446985459e-08
8.085329939e-08
8.263662089e-08
7.060239361e-08
7.135154338e-08
6.872924322e-08
7.081624796e-08
7.553206184e-08
7.723519946e-08
7.352484464e-08
7.926663817e-08