/*--------------------------------*- C++ -*----------------------------------*\
| =========                 |                                                 |
| \\      /  F ield         | OpenFOAM: The Open Source CFD Toolbox           |
|  \\    /   O peration     | Version:  2206                                  |
|   \\  /    A nd           | Website:  www.openfoam.com                      |
|    \\/     M anipulation  |                                                 |
\*---------------------------------------------------------------------------*/
FoamFile
{
    version     2.0;
    format      ascii;
    arch        "LSB;label=32;scalar=64";
    class       volScalarField;
    location    "0";
    object      k;
}
// * * * * * * * * * * * * * * * * * * * * * * * * * * * * * * * * * * * * * //

dimensions      [0 2 -2 0 0 0 0];

internalField   nonuniform List<scalar> 
31329
(
2.483132724e-08
2.567068809e-08
1.714821927e-09
3.376189395e-09
7.959013416e-09
1.266413802e-08
1.67965501e-08
1.935656614e-08
2.026435847e-08
2.067435775e-08
2.236422253e-08
2.601284447e-08
2.963144965e-08
2.943813582e-08
2.386162029e-08
1.750935517e-08
1.318648468e-08
1.234664225e-08
1.595549667e-08
2.606025578e-08
4.375993524e-08
6.646738106e-08
6.522524126e-08
8.83477745e-08
9.025372941e-08
9.318867992e-08
1.098162394e-07
1.1068685e-07
1.014043552e-07
8.407983116e-08
9.086507218e-08
7.406856093e-08
7.185976529e-08
7.017034667e-08
5.6320503e-08
5.840763256e-08
5.421926825e-08
4.382786357e-08
4.241620652e-08
4.634365168e-08
3.610666256e-08
2.985621403e-08
3.18253734e-08
3.474854724e-08
2.898344889e-08
2.479755672e-08
2.475014841e-08
2.806059003e-08
2.855173568e-08
2.540325475e-08
2.360693757e-08
2.744898656e-08
3.257132431e-08
2.958054923e-08
2.754806297e-08
3.235802837e-08
4.062550076e-08
3.7691896e-08
3.558752895e-08
4.076109012e-08
4.874389658e-08
4.522493789e-08
4.341741384e-08
4.69599965e-08
4.959793113e-08
4.392732514e-08
4.14381544e-08
4.40752285e-08
4.226846485e-08
3.601105716e-08
3.328934887e-08
3.552833428e-08
3.327964951e-08
2.8221801e-08
2.638072265e-08
2.77942074e-08
2.691358069e-08
2.31529393e-08
2.272257672e-08
2.290003667e-08
2.314689429e-08
2.022606091e-08
2.190646612e-08
2.001112123e-08
2.064191107e-08
1.81002589e-08
2.327934529e-08
1.783448525e-08
1.85804729e-08
1.631838274e-08
2.086680543e-08
1.602506777e-08
1.758774707e-08
1.49213279e-08
1.607004149e-08
1.460811915e-08
1.604958816e-08
1.358347293e-08
1.350394913e-08
1.315478549e-08
1.419695851e-08
1.155458648e-08
1.078480241e-08
1.097658148e-08
1.173134231e-08
9.188751316e-09
8.248760634e-09
8.607825288e-09
9.179827786e-09
7.094654805e-09
6.342277987e-09
6.579085562e-09
6.846965265e-09
5.123818709e-09
4.486669879e-09
4.670581702e-09
4.796533488e-09
3.691609618e-09
3.22577662e-09
3.40724887e-09
3.593374594e-09
3.526000959e-09
3.15906481e-09
3.488128452e-09
4.098427702e-09
6.448020317e-09
5.525944365e-09
6.770405488e-09
9.443959356e-09
2.162514373e-08
1.913238308e-08
2.01164674e-08
3.065421466e-08
7.50920528e-08
7.236716579e-08
6.640096026e-08
9.761862804e-08
1.907421054e-07
1.848304383e-07
1.957375054e-07
2.634438454e-07
3.39655883e-07
3.342341249e-07
4.172307504e-07
4.535968503e-07
4.676631615e-07
5.874767996e-07
5.450985995e-07
6.692645334e-07
7.361391031e-07
8.289441051e-07
8.127914693e-07
1.156685549e-06
1.296024978e-06
1.525625877e-06
2.831857873e-06
3.812510776e-06
4.610744446e-06
4.984260309e-06
4.470609674e-06
3.280346339e-06
1.941143821e-06
9.421349173e-07
3.911266018e-07
1.46252909e-07
5.145149578e-08
1.764549787e-08
6.122284036e-09
2.246353808e-09
8.736642929e-10
3.720740508e-10
1.753167788e-10
9.015684656e-11
4.587070964e-11
1.883084796e-11
4.933960692e-12
7.148182247e-13
3.149386841e-08
5.248915187e-09
7.209635364e-10
5.44437743e-10
1.135400016e-09
1.797340834e-09
2.382154953e-09
2.748711743e-09
2.886826823e-09
2.960595722e-09
3.224237542e-09
3.797188923e-09
4.422972883e-09
4.593059784e-09
4.892485823e-09
4.290381932e-09
3.997941442e-09
4.15805145e-09
5.295074526e-09
7.77209684e-09
1.218612794e-08
1.817821285e-08
4.501861564e-08
5.072191106e-08
5.2847544e-08
6.328558655e-08
5.12953141e-08
5.169591452e-08
4.635575869e-08
5.426297818e-08
4.866597602e-08
4.487933122e-08
4.516795065e-08
3.237914425e-08
3.717216987e-08
3.548555813e-08
2.436806966e-08
2.743032879e-08
2.761362705e-08
2.440089567e-08
1.852770788e-08
2.024136042e-08
1.932956907e-08
1.736270244e-08
1.428538206e-08
1.554619099e-08
1.55067319e-08
1.413647248e-08
1.331841848e-08
1.467810119e-08
1.535601943e-08
1.407350506e-08
1.505032154e-08
1.686196146e-08
1.777667399e-08
1.633412676e-08
1.922698461e-08
2.16946667e-08
2.300226454e-08
2.108238751e-08
2.344832139e-08
2.651436696e-08
2.824313989e-08
2.571022979e-08
2.290992955e-08
2.563183727e-08
2.719134971e-08
2.485472296e-08
1.89971343e-08
2.104035542e-08
2.209914619e-08
2.04646131e-08
1.521517866e-08
1.68286198e-08
1.740663748e-08
1.645773026e-08
1.279231649e-08
1.421100301e-08
1.422583698e-08
1.398885222e-08
1.148357984e-08
1.282736972e-08
1.174679758e-08
1.270198426e-08
1.056419418e-08
1.182928375e-08
7.940223799e-09
1.17720049e-08
1.041166091e-08
1.084146984e-08
7.277639136e-09
1.083937917e-08
9.593688576e-09
9.871342354e-09
9.07304784e-09
9.914171254e-09
8.774913286e-09
8.803269951e-09
8.916258358e-09
8.876067571e-09
7.844623815e-09
7.496888734e-09
7.866993802e-09
7.585277226e-09
6.706919261e-09
6.273756452e-09
6.677522029e-09
6.379101153e-09
5.671017244e-09
5.732212669e-09
6.171578076e-09
5.870940917e-09
5.217631833e-09
5.539582633e-09
5.993561148e-09
5.712135574e-09
5.090744054e-09
5.742807434e-09
6.248729883e-09
5.970374053e-09
5.347945626e-09
6.65193828e-09
7.262602419e-09
6.974573491e-09
6.327809636e-09
9.498630928e-09
1.035217903e-08
1.006694603e-08
9.447320896e-09
1.913681679e-08
2.097451458e-08
2.115156449e-08
2.047227985e-08
5.128569144e-08
5.749919138e-08
5.986605709e-08
5.717115478e-08
1.280165441e-07
1.462886648e-07
1.460697095e-07
1.328916459e-07
2.487492871e-07
2.617903262e-07
2.276231366e-07
3.247470351e-07
3.23194071e-07
3.408072186e-07
3.763877809e-07
3.258850868e-07
3.85777559e-07
3.740691859e-07
5.35386286e-07
6.425729982e-07
6.370271822e-07
9.412470151e-07
8.604541088e-07
1.100744429e-06
1.271290191e-06
1.312673663e-06
1.135990571e-06
8.023191858e-07
4.59192169e-07
2.173822334e-07
8.945637456e-08
3.38467014e-08
1.239676447e-08
4.578518991e-09
1.765054999e-09
6.027843912e-10
2.691923632e-10
1.255375358e-10
5.95556119e-11
2.794655102e-11
1.223789945e-11
4.518646716e-12
1.537506642e-12
4.871308172e-12
7.462315668e-09
1.382261118e-09
3.784523526e-10
2.179588606e-10
3.392915964e-10
5.269995152e-10
7.127229443e-10
8.592580335e-10
9.726688115e-10
1.119854714e-09
1.405554649e-09
2.013963589e-09
3.057851127e-09
4.604231153e-09
7.069217409e-09
9.694278476e-09
1.233831412e-08
1.436225798e-08
1.631127285e-08
1.85108327e-08
2.192144605e-08
2.599728446e-08
4.35642505e-08
4.467306848e-08
4.583786406e-08
4.865535688e-08
3.954661971e-08
3.680896782e-08
3.319589119e-08
3.506627394e-08
3.352371857e-08
2.874652179e-08
2.875334801e-08
2.153264503e-08
2.327201778e-08
2.25592696e-08
1.628735382e-08
1.739690754e-08
1.741901952e-08
1.586853732e-08
1.127223219e-08
1.173769621e-08
1.140471169e-08
1.044262109e-08
6.627047622e-09
6.794252116e-09
6.757193015e-09
6.345118608e-09
4.711666629e-09
4.90951e-09
4.991402555e-09
4.758836836e-09
4.519508168e-09
4.831980677e-09
4.959384607e-09
4.749282912e-09
5.314843074e-09
5.75073555e-09
5.929552182e-09
5.698445726e-09
6.975196578e-09
7.599959712e-09
7.842772059e-09
7.553685852e-09
9.243105164e-09
1.012584576e-08
1.041588958e-08
1.004148154e-08
1.108609473e-08
1.211009685e-08
1.230698276e-08
1.197132388e-08
1.161946257e-08
1.257542709e-08
1.24624707e-08
1.243721129e-08
1.163971565e-08
1.256428309e-08
1.196530181e-08
1.247285749e-08
1.19782903e-08
1.297561957e-08
1.146665237e-08
1.294094668e-08
1.264866122e-08
1.376323498e-08
1.011643083e-08
1.375686016e-08
1.263927816e-08
1.370176681e-08
1.007317805e-08
1.369556623e-08
1.254724191e-08
1.23905739e-08
1.09807469e-08
1.237455216e-08
1.127013029e-08
1.013399783e-08
9.616365384e-09
1.013988175e-08
9.353841945e-09
9.300151049e-09
9.220337094e-09
9.388577771e-09
8.727148493e-09
9.663290295e-09
9.782053216e-09
9.853632365e-09
9.342724444e-09
1.248933383e-08
1.292647098e-08
1.286861408e-08
1.224928598e-08
1.750733248e-08
1.840363568e-08
1.811970506e-08
1.709388137e-08
2.294779682e-08
2.427150579e-08
2.378064972e-08
2.233847607e-08
2.870789445e-08
3.038104232e-08
2.981466663e-08
2.819714733e-08
3.817430816e-08
4.041710533e-08
3.989437952e-08
3.837731091e-08
5.838023404e-08
6.24582429e-08
6.287799499e-08
6.164705637e-08
1.070873415e-07
1.166508197e-07
1.193017249e-07
1.175320113e-07
2.048943639e-07
2.261579064e-07
2.268174827e-07
2.167675381e-07
3.470811812e-07
3.601309666e-07
3.272122297e-07
3.986535353e-07
3.970536312e-07
3.777136526e-07
3.887373881e-07
3.606704731e-07
3.285705346e-07
3.401148642e-07
3.778344162e-07
3.950241367e-07
3.937927958e-07
4.970076263e-07
4.804152348e-07
6.174501907e-07
7.508305345e-07
8.14659757e-07
7.966292587e-07
6.121454272e-07
3.873085422e-07
2.085126513e-07
1.028882042e-07
4.856082613e-08
2.294366029e-08
1.101043061e-08
5.398482184e-09
2.507710336e-09
1.263767578e-09
6.27956008e-10
2.984487066e-10
1.300964202e-10
4.848770987e-11
1.385345605e-11
4.708017247e-12
1.955916772e-11
4.080555629e-09
6.904621102e-10
2.548103057e-10
1.655673674e-10
2.144101322e-10
3.439672434e-10
5.339382251e-10
7.886509304e-10
1.152752143e-09
1.756391122e-09
2.872654621e-09
5.085458971e-09
9.259938717e-09
1.629702284e-08
2.714874136e-08
3.945360168e-08
5.136179053e-08
6.03587771e-08
6.704367193e-08
7.399625892e-08
8.452903436e-08
9.648229716e-08
1.369785647e-07
1.397100921e-07
1.421847868e-07
1.450982762e-07
1.209678988e-07
1.108134281e-07
9.940632519e-08
9.978920998e-08
9.81373639e-08
8.182472273e-08
8.15307946e-08
6.278707152e-08
6.544472e-08
6.40172425e-08
4.754814666e-08
4.91949124e-08
4.909151658e-08
4.556597533e-08
3.164879329e-08
3.201836243e-08
3.141120507e-08
2.908654439e-08
1.666280777e-08
1.640471831e-08
1.62701901e-08
1.552348232e-08
9.895587893e-09
9.877269022e-09
9.815311803e-09
9.576397158e-09
8.018580704e-09
8.291669107e-09
8.335228482e-09
8.157415818e-09
8.455192143e-09
8.864349136e-09
8.896237432e-09
8.916023585e-09
1.229198987e-08
1.314338228e-08
1.318134783e-08
1.343796577e-08
2.11652769e-08
2.310624742e-08
2.335007873e-08
2.336971721e-08
3.05502911e-08
3.315378735e-08
3.324003811e-08
3.312940718e-08
3.510605658e-08
3.740583958e-08
3.656681059e-08
3.723252517e-08
3.682900282e-08
3.895556255e-08
3.67923229e-08
3.884454126e-08
3.900649896e-08
4.135565563e-08
3.701700252e-08
4.138584631e-08
4.211394264e-08
4.485390492e-08
3.59532536e-08
4.490979282e-08
4.268300285e-08
4.519870888e-08
3.625297723e-08
4.514788947e-08
4.231661938e-08
4.082878821e-08
3.668331421e-08
4.064299992e-08
3.778653699e-08
3.309431582e-08
3.09876004e-08
3.296542105e-08
3.118903126e-08
3.072222788e-08
2.990665873e-08
3.092730244e-08
2.9557959e-08
3.289640251e-08
3.262493544e-08
3.349086099e-08
3.279668654e-08
4.397936982e-08
4.462097677e-08
4.526595825e-08
4.458021577e-08
6.355517162e-08
6.562592127e-08
6.56148309e-08
6.374842211e-08
8.428198707e-08
8.742206937e-08
8.689889248e-08
8.394385437e-08
1.059896356e-07
1.0984762e-07
1.093426825e-07
1.063929452e-07
1.40818749e-07
1.459867896e-07
1.46021801e-07
1.443356237e-07
2.13758894e-07
2.243673355e-07
2.25983606e-07
2.272171306e-07
3.810181151e-07
4.071707907e-07
4.117855733e-07
4.177107837e-07
7.068983002e-07
7.644224166e-07
7.693244846e-07
7.611905285e-07
1.155433786e-06
1.189122013e-06
1.114898474e-06
1.298303421e-06
1.294741859e-06
1.225378898e-06
1.227915322e-06
1.176032508e-06
1.020728558e-06
1.068487616e-06
1.091927062e-06
1.104712489e-06
1.10417079e-06
1.305542893e-06
1.333234951e-06
1.717446908e-06
2.138694171e-06
2.37776073e-06
2.431880981e-06
1.923116363e-06
1.256259017e-06
7.022872945e-07
3.626761742e-07
1.791034378e-07
8.82252434e-08
4.379675183e-08
2.203321277e-08
1.082756607e-08
5.487954179e-09
2.719424896e-09
1.276282625e-09
5.399712141e-10
1.893560173e-10
4.844892755e-11
1.359711466e-11
5.36233606e-11
9.302338352e-09
1.370641111e-09
4.298288747e-10
2.561768971e-10
3.221646307e-10
5.718094038e-10
1.027878568e-09
1.759268054e-09
2.927335955e-09
4.929701685e-09
8.664906635e-09
1.596752579e-08
2.976408925e-08
5.310338016e-08
8.786816587e-08
1.274283957e-07
1.650958512e-07
1.934996504e-07
2.131845965e-07
2.342944871e-07
2.663119764e-07
3.019488156e-07
3.95280458e-07
4.06847289e-07
4.124050781e-07
4.149843887e-07
3.540389117e-07
3.24951392e-07
2.902596374e-07
2.842852068e-07
2.83093082e-07
2.3391697e-07
2.325580715e-07
1.824006979e-07
1.859564667e-07
1.828867899e-07
1.381381699e-07
1.400822439e-07
1.394896701e-07
1.310713766e-07
9.072021651e-08
9.019609274e-08
8.903263888e-08
8.322809105e-08
4.735947767e-08
4.570491337e-08
4.528660912e-08
4.371096421e-08
2.758457137e-08
2.700171977e-08
2.655103579e-08
2.626763851e-08
2.17333263e-08
2.209934456e-08
2.199494975e-08
2.180874423e-08
2.238834045e-08
2.307812454e-08
2.286393981e-08
2.340878777e-08
3.339533286e-08
3.531717098e-08
3.500877697e-08
3.652255378e-08
5.977619752e-08
6.473187325e-08
6.489743478e-08
6.59581729e-08
8.804855634e-08
9.460420957e-08
9.425138048e-08
9.494693728e-08
1.022803911e-07
1.076120192e-07
1.047041541e-07
1.074087371e-07
1.078895309e-07
1.1256148e-07
1.063908255e-07
1.124655539e-07
1.146191703e-07
1.198680399e-07
1.089107299e-07
1.201302769e-07
1.238023385e-07
1.300560913e-07
1.100479805e-07
1.302961247e-07
1.251141942e-07
1.311008632e-07
1.109922096e-07
1.308758086e-07
1.243420195e-07
1.182682221e-07
1.078041037e-07
1.175098765e-07
1.10673734e-07
9.606672059e-08
8.976331878e-08
9.545550681e-08
9.162777345e-08
8.941752354e-08
8.636393617e-08
8.983286579e-08
8.718416401e-08
9.626949607e-08
9.443405433e-08
9.785606744e-08
9.749848299e-08
1.292925568e-07
1.296423695e-07
1.329186467e-07
1.333489819e-07
1.878973417e-07
1.918975225e-07
1.936387299e-07
1.91228054e-07
2.494553208e-07
2.55632972e-07
2.563935216e-07
2.516662296e-07
3.144359488e-07
3.217417722e-07
3.23127359e-07
3.196277163e-07
4.188003285e-07
4.286251574e-07
4.323759343e-07
4.343559057e-07
6.382791312e-07
6.624541605e-07
6.67498952e-07
6.817733816e-07
1.134259725e-06
1.198755623e-06
1.20387641e-06
1.244060727e-06
2.088676909e-06
2.232606743e-06
2.251669752e-06
2.27242449e-06
3.341970792e-06
3.421748135e-06
3.271658469e-06
3.723816255e-06
3.717196903e-06
3.537078832e-06
3.500846591e-06
3.413087071e-06
2.954576773e-06
3.095146721e-06
3.077949756e-06
3.13784866e-06
3.149774974e-06
3.661413635e-06
3.952274729e-06
5.092827061e-06
6.341372592e-06
7.017385984e-06
7.165770662e-06
5.654465478e-06
3.703702069e-06
2.086874095e-06
1.08911001e-06
5.433322513e-07
2.700010595e-07
1.348916668e-07
6.813708978e-08
3.45784578e-08
1.717271138e-08
8.413696761e-09
3.863472797e-09
1.574800575e-09
5.231860581e-10
1.25404981e-10
3.119411588e-11
1.191268104e-10
2.139674334e-08
3.077258499e-09
9.074372863e-10
5.122800568e-10
6.633513548e-10
1.269742519e-09
2.443196525e-09
4.408650704e-09
7.63650044e-09
1.325525884e-08
2.381672267e-08
4.43340133e-08
8.27339009e-08
1.469821912e-07
2.399869648e-07
3.448079469e-07
4.428147647e-07
5.15844099e-07
5.658867589e-07
6.218464758e-07
7.061083984e-07
7.980103074e-07
9.941604621e-07
1.029487578e-06
1.040884502e-06
1.037468554e-06
8.982191069e-07
8.272580507e-07
7.361067375e-07
7.106326184e-07
7.127099502e-07
5.862957628e-07
5.820662367e-07
4.619433788e-07
4.643557621e-07
4.583424282e-07
3.497033637e-07
3.501371941e-07
3.481569744e-07
3.297277216e-07
2.276789328e-07
2.237659669e-07
2.218426943e-07
2.086999593e-07
1.189350012e-07
1.134195937e-07
1.123263678e-07
1.092650488e-07
6.943375681e-08
6.726346094e-08
6.573428112e-08
6.56249455e-08
5.462194948e-08
5.502857496e-08
5.444200717e-08
5.445946114e-08
5.617315732e-08
5.736306195e-08
5.642018938e-08
5.848127017e-08
8.453123334e-08
8.880687049e-08
8.748048594e-08
9.234245705e-08
1.518580391e-07
1.634722703e-07
1.630746675e-07
1.671782968e-07
2.234395654e-07
2.383618058e-07
2.364832719e-07
2.397847452e-07
2.597636708e-07
2.710484297e-07
2.630463808e-07
2.709568972e-07
2.742542324e-07
2.83662986e-07
2.68525394e-07
2.837557527e-07
2.915799713e-07
3.023729354e-07
2.777495929e-07
3.032775414e-07
3.143645744e-07
3.273894598e-07
2.864968744e-07
3.280811521e-07
3.178447663e-07
3.29606968e-07
2.88602311e-07
3.288889281e-07
3.150356845e-07
2.966341895e-07
2.732372828e-07
2.943775177e-07
2.795435626e-07
2.416886441e-07
2.258267376e-07
2.398085464e-07
2.322689889e-07
2.256532749e-07
2.169899769e-07
2.26436626e-07
2.218536764e-07
2.440319348e-07
2.377377044e-07
2.478288719e-07
2.495255978e-07
3.2876056e-07
3.271238902e-07
3.377360204e-07
3.425707086e-07
4.787790332e-07
4.853606275e-07
4.928373072e-07
4.914614953e-07
6.355219512e-07
6.459231835e-07
6.519119565e-07
6.46204533e-07
8.031442751e-07
8.148426156e-07
8.234410471e-07
8.22848377e-07
1.074034983e-06
1.090003266e-06
1.106033042e-06
1.122267362e-06
1.645607471e-06
1.696376011e-06
1.709767905e-06
1.763225389e-06
2.921525834e-06
3.067290463e-06
3.065833446e-06
3.205236846e-06
5.337049716e-06
5.665092163e-06
5.72006423e-06
5.834402627e-06
8.340920813e-06
8.507487545e-06
8.237517893e-06
9.203234987e-06
9.191905667e-06
8.766175545e-06
8.615591329e-06
8.489169128e-06
7.369990135e-06
7.704729511e-06
7.54801997e-06
7.760352573e-06
7.815912264e-06
9.000862862e-06
1.009190347e-05
1.292666924e-05
1.589291012e-05
1.73147021e-05
1.74228021e-05
1.364153201e-05
8.933081072e-06
5.069575624e-06
2.673571914e-06
1.347087605e-06
6.746783835e-07
3.387047096e-07
1.713630685e-07
8.683230926e-08
4.300516533e-08
2.072402837e-08
9.266746343e-09
3.645118776e-09
1.166385259e-09
2.709734548e-10
6.335948784e-11
2.312758279e-10
4.32513674e-08
6.171031466e-09
1.785000535e-09
1.001610643e-09
1.358079202e-09
2.743734441e-09
5.508996627e-09
1.028248338e-08
1.831345469e-08
3.25151032e-08
5.934117863e-08
1.11085492e-07
2.06543538e-07
3.633020596e-07
5.836271934e-07
8.275150842e-07
1.050387333e-06
1.21380493e-06
1.328044717e-06
1.462190753e-06
1.660186721e-06
1.87029731e-06
2.248449719e-06
2.335966086e-06
2.357152471e-06
2.330049695e-06
2.036993985e-06
1.882654276e-06
1.669708092e-06
1.597236971e-06
1.608905205e-06
1.320716163e-06
1.309897618e-06
1.048454776e-06
1.043626786e-06
1.032889073e-06
7.932845169e-07
7.873165466e-07
7.820279308e-07
7.446607885e-07
5.127874878e-07
4.996964349e-07
4.970867949e-07
4.697317424e-07
2.681617247e-07
2.536619816e-07
2.511377967e-07
2.456696248e-07
1.575495021e-07
1.516906082e-07
1.476147022e-07
1.483250785e-07
1.244802814e-07
1.246986581e-07
1.228381853e-07
1.236849561e-07
1.284831219e-07
1.304455828e-07
1.276462225e-07
1.334679735e-07
1.947125468e-07
2.03731459e-07
1.998220083e-07
2.12547168e-07
3.492820267e-07
3.744796669e-07
3.722167785e-07
3.837568494e-07
5.110299954e-07
5.423125885e-07
5.363680845e-07
5.46325975e-07
5.931465321e-07
6.153705238e-07
5.962463162e-07
6.157770582e-07
6.26229251e-07
6.439493525e-07
6.105482308e-07
6.446792688e-07
6.6619004e-07
6.870562991e-07
6.363150136e-07
6.894416162e-07
7.163440259e-07
7.415775748e-07
6.637899597e-07
7.432104586e-07
7.247763864e-07
7.450792499e-07
6.674139539e-07
7.431467776e-07
7.155812181e-07
6.681590644e-07
6.202908365e-07
6.624996308e-07
6.327647552e-07
5.465151746e-07
5.110271188e-07
5.418234593e-07
5.280324944e-07
5.125214146e-07
4.915132102e-07
5.139831654e-07
5.068836898e-07
5.575079169e-07
5.405702297e-07
5.65934003e-07
5.738400888e-07
7.539959049e-07
7.461665743e-07
7.742450675e-07
7.90804029e-07
1.098512919e-06
1.107443697e-06
1.129832675e-06
1.133747153e-06
1.457119787e-06
1.471744685e-06
1.492706516e-06
1.489542877e-06
1.848030944e-06
1.863150992e-06
1.892049295e-06
1.903976581e-06
2.485862587e-06
2.507364923e-06
2.55606169e-06
2.611362001e-06
3.831035345e-06
3.931856035e-06
3.963692716e-06
4.113612475e-06
6.780775977e-06
7.088502157e-06
7.060557584e-06
7.437725769e-06
1.221133539e-05
1.289865718e-05
1.303081651e-05
1.336231997e-05
1.852124597e-05
1.882824564e-05
1.839673654e-05
2.018742376e-05
2.016772871e-05
1.923807771e-05
1.883294223e-05
1.867515772e-05
1.630006117e-05
1.697868397e-05
1.648108511e-05
1.705027969e-05
1.721211694e-05
1.964562759e-05
2.252752361e-05
2.840560389e-05
3.39810007e-05
3.632633268e-05
3.550968343e-05
2.766035765e-05
1.814065679e-05
1.040690865e-05
5.569432044e-06
2.845437416e-06
1.440116408e-06
7.275797792e-07
3.687441905e-07
1.861959486e-07
9.151636572e-08
4.331100458e-08
1.890008416e-08
7.241384827e-09
2.265586619e-09
5.170246818e-10
1.14024957e-10
3.958963154e-10
7.985593009e-08
1.134982109e-08
3.257329049e-09
1.848514325e-09
2.636356097e-09
5.571209669e-09
1.160268673e-08
2.237517951e-08
4.10239892e-08
7.458545707e-08
1.381767895e-07
2.595473449e-07
4.789870684e-07
8.299871507e-07
1.306761833e-06
1.821016917e-06
2.27769452e-06
2.607010764e-06
2.84803352e-06
3.14617387e-06
3.57136493e-06
4.006470203e-06
4.676663561e-06
4.863796825e-06
4.899246078e-06
4.805016079e-06
4.230317796e-06
3.924915904e-06
3.471431669e-06
3.301528372e-06
3.333858772e-06
2.735777713e-06
2.711354255e-06
2.185784429e-06
2.159474426e-06
2.141931176e-06
1.6533354e-06
1.630005235e-06
1.617632191e-06
1.546675237e-06
1.061943075e-06
1.027749541e-06
1.025266027e-06
9.722057843e-07
5.561228423e-07
5.229057838e-07
5.175885139e-07
5.085855533e-07
3.297055839e-07
3.162932208e-07
3.068389315e-07
3.098484301e-07
2.624998728e-07
2.620127417e-07
2.572277928e-07
2.603747425e-07
2.727117391e-07
2.758219706e-07
2.68825041e-07
2.830264794e-07
4.163031029e-07
4.344637475e-07
4.24748434e-07
4.542715061e-07
7.441882565e-07
7.955417242e-07
7.886007528e-07
8.161897441e-07
1.079601795e-06
1.140788806e-06
1.125652442e-06
1.1502958e-06
1.249494012e-06
1.290645486e-06
1.249474017e-06
1.292422531e-06
1.318893283e-06
1.350411403e-06
1.282626013e-06
1.352795036e-06
1.404181054e-06
1.442554355e-06
1.345240302e-06
1.44798491e-06
1.504707046e-06
1.550567116e-06
1.411349398e-06
1.553924773e-06
1.520467099e-06
1.553571086e-06
1.415517781e-06
1.548878024e-06
1.496760191e-06
1.386504657e-06
1.295394591e-06
1.373797498e-06
1.318196091e-06
1.140182986e-06
1.067562874e-06
1.12994637e-06
1.106375426e-06
1.075853841e-06
1.030093328e-06
1.078667988e-06
1.069197602e-06
1.179641219e-06
1.139976507e-06
1.197354078e-06
1.220488073e-06
1.603322856e-06
1.580306062e-06
1.645950899e-06
1.688965244e-06
2.333291513e-06
2.341721485e-06
2.398174079e-06
2.417050352e-06
3.091282774e-06
3.106165397e-06
3.163638125e-06
3.173242778e-06
3.93981261e-06
3.951692753e-06
4.030069688e-06
4.077915675e-06
5.339842914e-06
5.359671011e-06
5.485562843e-06
5.633472943e-06
8.267976758e-06
8.459001477e-06
8.528625471e-06
8.889448171e-06
1.449496402e-05
1.510388391e-05
1.500694255e-05
1.587976151e-05
2.546448109e-05
2.678179742e-05
2.705854007e-05
2.780807173e-05
3.726160573e-05
3.776029281e-05
3.715654522e-05
4.009265948e-05
4.005653801e-05
3.824820756e-05
3.737401832e-05
3.720006127e-05
3.27349916e-05
3.396623872e-05
3.282039416e-05
3.409210158e-05
3.445601964e-05
3.884054926e-05
4.47866137e-05
5.472823117e-05
6.274380139e-05
6.575717422e-05
6.181270376e-05
4.824376762e-05
3.17936696e-05
1.851329313e-05
1.009539611e-05
5.254092497e-06
2.694859405e-06
1.372893769e-06
6.978333207e-07
3.513511282e-07
1.713599099e-07
7.992254676e-08
3.428344388e-08
1.292916099e-08
3.99684117e-09
9.023725736e-10
1.847721222e-10
5.871111775e-10
1.392655376e-07
1.97502072e-08
5.653729438e-09
3.282570124e-09
4.939645688e-09
1.086078499e-08
2.337878402e-08
4.656763171e-08
8.798381883e-08
1.63799333e-07
3.073739607e-07
5.772228557e-07
1.05236564e-06
1.794829828e-06
2.743489728e-06
3.740867378e-06
4.596059694e-06
5.205009288e-06
5.683896102e-06
6.30514227e-06
7.147598058e-06
7.971039652e-06
9.054770403e-06
9.4065655e-06
9.458571402e-06
9.209819419e-06
8.155731183e-06
7.603497878e-06
6.710252298e-06
6.361781106e-06
6.429130263e-06
5.283478276e-06
5.233242534e-06
4.248531768e-06
4.171737106e-06
4.145463028e-06
3.214957334e-06
3.152285586e-06
3.125935335e-06
2.999014959e-06
2.053819085e-06
1.976200979e-06
1.97603182e-06
1.879349329e-06
1.078470283e-06
1.009344062e-06
9.989293975e-07
9.853562161e-07
6.474000031e-07
6.198824728e-07
6.000001007e-07
6.082918749e-07
5.210173725e-07
5.188402493e-07
5.079679469e-07
5.165081148e-07
5.460686652e-07
5.508446749e-07
5.351496342e-07
5.666590839e-07
8.397861272e-07
8.749361143e-07
8.533505501e-07
9.162148798e-07
1.492355178e-06
1.591527054e-06
1.57477295e-06
1.633730904e-06
2.140125834e-06
2.252394861e-06
2.219127013e-06
2.27262491e-06
2.467471026e-06
2.539303222e-06
2.458407342e-06
2.544283861e-06
2.604143375e-06
2.657102851e-06
2.529658126e-06
2.663304747e-06
2.775581047e-06
2.842883439e-06
2.668908467e-06
2.854087965e-06
2.961537992e-06
3.039647232e-06
2.805482447e-06
3.045802594e-06
2.989907867e-06
3.034659996e-06
2.804891937e-06
3.024042474e-06
2.929992965e-06
2.692035248e-06
2.52996526e-06
2.665724023e-06
2.568649771e-06
2.231021686e-06
2.093371614e-06
2.210861682e-06
2.173420992e-06
2.122440875e-06
2.030838931e-06
2.128126146e-06
2.118997813e-06
2.352058798e-06
2.26791633e-06
2.387803611e-06
2.444618409e-06
3.215512376e-06
3.160271339e-06
3.30042281e-06
3.397753418e-06
4.66435777e-06
4.663976565e-06
4.79082374e-06
4.845239556e-06
6.166250878e-06
6.168257721e-06
6.305217168e-06
6.35388308e-06
7.904951878e-06
7.894101878e-06
8.081093588e-06
8.218738236e-06
1.079920352e-05
1.079513583e-05
1.108612821e-05
1.143555767e-05
1.672324457e-05
1.706539735e-05
1.720645546e-05
1.798419926e-05
2.871053496e-05
2.982311147e-05
2.959213117e-05
3.136123626e-05
4.870174271e-05
5.098158464e-05
5.149636242e-05
5.295623043e-05
6.879744556e-05
6.951834113e-05
6.877957534e-05
7.328138928e-05
7.321992653e-05
7.027654751e-05
6.862121166e-05
6.8505019e-05
6.096543731e-05
6.310991186e-05
6.095545545e-05
6.337316461e-05
6.403298772e-05
7.064718543e-05
8.014938036e-05
9.332337042e-05
0.0001017375651
0.0001043284395
9.492283506e-05
7.453772983e-05
4.956650293e-05
2.930675283e-05
1.628913878e-05
8.664751467e-06
4.511559721e-06
2.320282121e-06
1.184427847e-06
5.960550077e-07
2.894758038e-07
1.339307572e-07
5.694328565e-08
2.131189916e-08
6.550200514e-09
1.466363387e-09
2.705392436e-10
7.350058198e-10
2.356823536e-07
3.337031628e-08
9.552641688e-09
5.721358315e-09
9.111963254e-09
2.077403426e-08
4.607710926e-08
9.462502484e-08
1.839323381e-07
3.495669672e-07
6.613192159e-07
1.234747952e-06
2.210669353e-06
3.667055085e-06
5.445095816e-06
7.232169801e-06
8.701967837e-06
9.744882334e-06
1.064662897e-05
1.185714305e-05
1.339310592e-05
1.481575254e-05
1.638732991e-05
1.696676934e-05
1.702970815e-05
1.648534506e-05
1.468281449e-05
1.377709579e-05
1.213919779e-05
1.150207436e-05
1.161250236e-05
9.576744695e-06
9.481332494e-06
7.756409338e-06
7.576802153e-06
7.54032805e-06
5.879502937e-06
5.737485847e-06
5.685574361e-06
5.471412344e-06
3.742109958e-06
3.583287051e-06
3.589326587e-06
3.423278518e-06
1.975754225e-06
1.8425202e-06
1.823355581e-06
1.804962947e-06
1.206289064e-06
1.154391391e-06
1.115759898e-06
1.134767758e-06
9.845909171e-07
9.790275879e-07
9.564652081e-07
9.763557099e-07
1.0429838e-06
1.050098537e-06
1.01765884e-06
1.082769143e-06
1.615010253e-06
1.680647601e-06
1.636847784e-06
1.761610822e-06
2.8424905e-06
3.024521328e-06
2.990399409e-06
3.104973404e-06
4.014768283e-06
4.207791378e-06
4.143645051e-06
4.247596602e-06
4.606843378e-06
4.724538244e-06
4.579951827e-06
4.736385458e-06
4.862286171e-06
4.945595845e-06
4.72493099e-06
4.959977556e-06
5.189094054e-06
5.300991659e-06
5.014564529e-06
5.322433135e-06
5.508155672e-06
5.631503301e-06
5.266730932e-06
5.641576646e-06
5.553918213e-06
5.596946051e-06
5.244906285e-06
5.574243051e-06
5.412667116e-06
4.930032322e-06
4.662392958e-06
4.879118756e-06
4.722261684e-06
4.132156668e-06
3.890485128e-06
4.095924599e-06
4.041830455e-06
3.972383028e-06
3.802846747e-06
3.984296329e-06
3.985350617e-06
4.46271471e-06
4.298952503e-06
4.532388461e-06
4.658949852e-06
6.135903263e-06
6.021149294e-06
6.296735575e-06
6.498366943e-06
8.839868033e-06
8.815263738e-06
9.072172003e-06
9.204216366e-06
1.163424244e-05
1.159574889e-05
1.188569069e-05
1.203576778e-05
1.499344884e-05
1.492053936e-05
1.531841487e-05
1.566176192e-05
2.059486514e-05
2.052385066e-05
2.112416482e-05
2.187647951e-05
3.162859346e-05
3.219748296e-05
3.245969673e-05
3.396359307e-05
5.248210658e-05
5.430710032e-05
5.388675825e-05
5.704650957e-05
8.604729215e-05
8.963743909e-05
9.051219233e-05
9.30934411e-05
0.0001182674124
0.0001192343159
0.0001184562255
0.0001254433015
0.0001253776832
0.0001216477676
0.0001188119435
0.0001190232304
0.0001075670026
0.0001111881431
0.0001074715183
0.0001111076846
0.0001120196549
0.0001195665561
0.0001306878131
0.000143890019
0.000149836371
0.0001504705695
0.0001345310383
0.0001067491964
7.216652239e-05
4.313461578e-05
2.422144019e-05
1.314423657e-05
6.939660405e-06
3.598866201e-06
1.844440578e-06
9.293667271e-07
4.510788271e-07
2.08242047e-07
8.830756496e-08
3.297492895e-08
1.011387522e-08
2.248946644e-09
3.651078035e-10
7.568329809e-10
3.938275791e-07
5.568586165e-08
1.596757551e-08
9.935568531e-09
1.678990697e-08
3.957474382e-08
9.011905741e-08
1.900412366e-07
3.781740927e-07
7.290926939e-07
1.380686536e-06
2.545249095e-06
4.44549026e-06
7.130285835e-06
1.023299336e-05
1.318478937e-05
1.549917705e-05
1.715869942e-05
1.875893541e-05
2.092762993e-05
2.34691083e-05
2.568548007e-05
2.766891253e-05
2.849016284e-05
2.854367884e-05
2.754138545e-05
2.468925802e-05
2.336805819e-05
2.057564809e-05
1.953636672e-05
1.966814549e-05
1.631611853e-05
1.614841113e-05
1.332622241e-05
1.29620473e-05
1.291294875e-05
1.013806586e-05
9.851817727e-06
9.756889649e-06
9.416302167e-06
6.448154e-06
6.151794635e-06
6.168438486e-06
5.899574451e-06
3.438994662e-06
3.19936451e-06
3.166090347e-06
3.144533576e-06
2.147679945e-06
2.056634744e-06
1.98673737e-06
2.025421886e-06
1.784110806e-06
1.772462963e-06
1.729115617e-06
1.770882249e-06
1.912675133e-06
1.922865552e-06
1.860407731e-06
1.987058659e-06
2.977190469e-06