/*--------------------------------*- C++ -*----------------------------------*\
| =========                 |                                                 |
| \\      /  F ield         | OpenFOAM: The Open Source CFD Toolbox           |
|  \\    /   O peration     | Version:  2206                                  |
|   \\  /    A nd           | Website:  www.openfoam.com                      |
|    \\/     M anipulation  |                                                 |
\*---------------------------------------------------------------------------*/
FoamFile
{
    version     2.0;
    format      ascii;
    arch        "LSB;label=32;scalar=64";
    class       volScalarField;
    location    "0";
    object      kMean;
}
// * * * * * * * * * * * * * * * * * * * * * * * * * * * * * * * * * * * * * //

dimensions      [0 2 -2 0 0 0 0];

internalField   nonuniform List<scalar> 
31329
(
2.18304944e-08
2.376034337e-08
3.794821756e-09
9.27839818e-09
2.388180316e-08
4.502904679e-08
6.938265179e-08
9.029165679e-08
1.005870402e-07
9.574668768e-08
7.907175151e-08
6.069843807e-08
5.077057614e-08
5.149414619e-08
5.660352587e-08
6.262558382e-08
6.339704342e-08
5.749552374e-08
5.049690174e-08
4.869290502e-08
5.331910487e-08
6.357268102e-08
5.299478809e-08
6.651656004e-08
6.661969529e-08
6.573319926e-08
7.742528995e-08
7.773084659e-08
7.211281447e-08
5.974853719e-08
6.529810454e-08
5.532725929e-08
5.407093508e-08
5.747887479e-08
4.747579369e-08
4.992130595e-08
5.280966374e-08
4.481833354e-08
4.400133292e-08
4.96342546e-08
4.560052855e-08
3.974118032e-08
4.220877001e-08
4.675743112e-08
4.356074193e-08
3.852651406e-08
3.854545228e-08
4.303647257e-08
4.303962853e-08
3.84020097e-08
3.60490408e-08
4.025153782e-08
4.156185331e-08
3.67144376e-08
3.418943108e-08
3.809347485e-08
3.923317917e-08
3.454656835e-08
3.200580777e-08
3.570510177e-08
3.722296135e-08
3.290247307e-08
3.05370632e-08
3.388136137e-08
3.572814208e-08
3.166672782e-08
2.955305397e-08
3.242216412e-08
3.434191263e-08
3.041535985e-08
2.863219877e-08
3.095676486e-08
3.294844768e-08
2.919051014e-08
2.803882719e-08
2.955399919e-08
3.165877652e-08
2.808758295e-08
2.817209638e-08
2.828171163e-08
3.03842488e-08
2.697799167e-08
2.956210237e-08
2.697293962e-08
2.883252534e-08
2.554758383e-08
3.320478648e-08
2.532009215e-08
2.665959302e-08
2.354743204e-08
3.042968914e-08
2.306007984e-08
2.496789886e-08
2.041643783e-08
2.206026055e-08
1.960542368e-08
2.064793646e-08
1.555287429e-08
1.516581647e-08
1.444583221e-08
1.451502917e-08
9.504643069e-09
8.293620185e-09
8.449424305e-09
8.347380394e-09
5.478051061e-09
4.250069021e-09
5.081154703e-09
5.989059612e-09
6.030538964e-09
5.967639486e-09
6.226037668e-09
6.935994066e-09
6.805338801e-09
6.684294172e-09
6.652913251e-09
6.731430279e-09
5.56441975e-09
4.547922835e-09
5.125094295e-09
5.956659541e-09
6.353514383e-09
5.657107121e-09
6.388581535e-09
7.876923745e-09
1.068520041e-08
9.661201752e-09
1.095173246e-08
1.381896828e-08
2.131905565e-08
1.989459848e-08
2.038715774e-08
2.585443148e-08
4.413045839e-08
4.211414735e-08
3.947311198e-08
5.188709928e-08
8.933885777e-08
8.310047588e-08
8.822075228e-08
1.221089168e-07
1.693329307e-07
1.645477578e-07
2.313225461e-07
3.040491965e-07
3.25222689e-07
5.442062073e-07
5.14856389e-07
7.143465307e-07
9.400892697e-07
1.16133267e-06
1.303593618e-06
2.085944734e-06
2.381112854e-06
2.883526736e-06
5.084521139e-06
5.996898783e-06
6.069601905e-06
4.985424795e-06
3.207177706e-06
1.600504816e-06
6.501839966e-07
2.413855032e-07
9.297987088e-08
4.005176317e-08
1.944540597e-08
1.029930097e-08
5.822646846e-09
3.560536856e-09
2.217453945e-09
1.396871992e-09
8.520037077e-10
4.778901898e-10
2.268427271e-10
7.867340511e-11
1.633369962e-11
1.908356224e-12
2.706572048e-08
4.721573783e-09
1.019273441e-09
1.538411279e-09
3.695764054e-09
6.947776838e-09
1.085947686e-08
1.458557665e-08
1.719465668e-08
1.794810174e-08
1.692541839e-08
1.538150845e-08
1.436506553e-08
1.404518717e-08
1.623620469e-08
1.592089231e-08
1.484972989e-08
1.296751124e-08
1.121811332e-08
1.085407008e-08
1.218148927e-08
1.505317374e-08
3.286613223e-08
3.454635231e-08
3.588093406e-08
4.147369105e-08
3.380131082e-08
3.424082962e-08
3.125160221e-08
3.669649877e-08
3.291954651e-08
3.202331656e-08
3.227404253e-08
2.59847918e-08
3.006451646e-08
2.876603041e-08
2.381850328e-08
2.718089549e-08
2.743151652e-08
2.442055112e-08
2.379083502e-08
2.631465481e-08
2.510777091e-08
2.263492995e-08
2.229401974e-08
2.449716623e-08
2.444906486e-08
2.220309349e-08
2.081565306e-08
2.300136544e-08
2.411367044e-08
2.191651711e-08
1.951691627e-08
2.174097884e-08
2.291823168e-08
2.083730451e-08
1.82920932e-08
2.036941798e-08
2.151369433e-08
1.96253859e-08
1.742858296e-08
1.944166199e-08
2.056888871e-08
1.88286303e-08
1.682209807e-08
1.879459244e-08
1.98803072e-08
1.828927962e-08
1.622322593e-08
1.813653103e-08
1.909681326e-08
1.773406665e-08
1.56922613e-08
1.755983295e-08
1.82550317e-08
1.725537637e-08
1.529857872e-08
1.714303591e-08
1.724878613e-08
1.692929719e-08
1.500135022e-08
1.683409915e-08
1.547635393e-08
1.670316737e-08
1.465514414e-08
1.646010864e-08
1.1083453e-08
1.640702202e-08
1.455143765e-08
1.597909911e-08
1.073092011e-08
1.599519022e-08
1.416603471e-08
1.507695328e-08
1.377216597e-08
1.514503853e-08
1.336473445e-08
1.333855248e-08
1.331766111e-08
1.343432084e-08
1.179578497e-08
1.070762386e-08
1.101118583e-08
1.081664429e-08
9.510101691e-09
8.588917967e-09
8.971802226e-09
8.739315738e-09
7.776096667e-09
8.355870246e-09
9.007776361e-09
8.581640849e-09
7.560200841e-09
6.913361368e-09
7.505323591e-09
7.097340291e-09
6.230713074e-09
4.977313746e-09
5.326158373e-09
5.116117173e-09
4.640501011e-09
5.998731411e-09
6.552519179e-09
6.296644397e-09
5.775095682e-09
9.362394476e-09
1.02752282e-08
9.932558653e-09
9.254355533e-09
1.650461427e-08
1.829018718e-08
1.839742309e-08
1.719303025e-08
3.010921921e-08
3.375969572e-08
3.528455469e-08
3.28942532e-08
5.779257143e-08
6.54794242e-08
6.540549575e-08
5.99664796e-08
1.176715486e-07
1.234739953e-07
1.110953428e-07
2.090745823e-07
2.095254226e-07
3.135452323e-07
3.479831471e-07
3.122081402e-07
4.935230888e-07
4.921728821e-07
8.711976485e-07
1.21312177e-06
1.208225551e-06
1.868897285e-06
1.625999095e-06
1.838426456e-06
1.793045861e-06
1.436364574e-06
9.042184569e-07
4.457990414e-07
1.814092803e-07
6.801096316e-08
2.622073177e-08
1.105428746e-08
5.128898369e-09
2.570170153e-09
1.37037733e-09
6.661365831e-10
3.9957952e-10
2.424479975e-10
1.430266515e-10
7.816104449e-11
3.676725073e-11
1.341835188e-11
4.906376069e-12
1.614353135e-11
7.772571923e-09
1.506638043e-09
7.299962409e-10
1.281325802e-09
3.005018955e-09
6.142953702e-09
1.11662961e-08
1.861647727e-08
2.883520525e-08
4.107260106e-08
5.289515814e-08
6.166419774e-08
6.437750418e-08
6.04911349e-08
5.373322398e-08
4.057303474e-08
2.820613318e-08
1.870266104e-08
1.231317161e-08
9.194432476e-09
8.64593717e-09
9.386469811e-09
1.524661274e-08
1.567633356e-08
1.608562593e-08
1.71492492e-08
1.485916291e-08
1.413647448e-08
1.36280266e-08
1.462743551e-08
1.39557617e-08
1.317553929e-08
1.32182609e-08
1.113687623e-08
1.216082938e-08
1.182941037e-08
1.027336248e-08
1.11573027e-08
1.121586388e-08
1.039139339e-08
1.017501535e-08
1.081205313e-08
1.05329614e-08
9.837669782e-09
9.7987558e-09
1.042025411e-08
1.040725666e-08
9.769786589e-09
9.44331197e-09
1.008686864e-08
1.034958716e-08
9.769789249e-09
9.19189469e-09
9.871321689e-09
1.014837846e-08
9.602326646e-09
9.067900359e-09
9.744000101e-09
1.000749003e-08
9.518658789e-09
9.173219606e-09
9.882099212e-09
1.012999229e-08
9.695161617e-09
9.52758019e-09
1.029035998e-08
1.049996018e-08
1.013600722e-08
1.0089936e-08
1.091817209e-08
1.102991975e-08
1.079796515e-08
1.0918e-08
1.183994617e-08
1.173737862e-08
1.175867393e-08
1.210697311e-08
1.316095396e-08
1.258095621e-08
1.312682446e-08
1.378660308e-08
1.502699915e-08
1.332429711e-08
1.505158782e-08
1.60847432e-08
1.757536711e-08
1.290961283e-08
1.767781971e-08
1.92078136e-08
2.104596949e-08
1.544806212e-08
2.125086755e-08
1.994636022e-08
2.552882399e-08
2.261630842e-08
2.586208229e-08
2.424729887e-08
3.0782463e-08
2.950652743e-08
3.125275998e-08
2.91484415e-08
3.530844778e-08
3.530182663e-08
3.586180148e-08
3.309892564e-08
3.581911422e-08
3.667515481e-08
3.629547875e-08
3.301130622e-08
2.933333739e-08
3.025712985e-08
2.953402313e-08
2.655610236e-08
1.858706858e-08
1.886545043e-08
1.855384879e-08
1.703666696e-08
1.422678372e-08
1.461291093e-08
1.444435875e-08
1.365587409e-08
1.670187055e-08
1.760109335e-08
1.733024224e-08
1.651783342e-08
2.348187424e-08
2.490274481e-08
2.458494365e-08
2.369886262e-08
3.623023857e-08
3.897435495e-08
3.920410883e-08
3.793228678e-08
5.877288293e-08
6.406544896e-08
6.570904162e-08
6.36447492e-08
9.661308519e-08
1.059592689e-07
1.061921457e-07
1.013795872e-07
1.614099272e-07
1.667801213e-07
1.573539575e-07
2.419401407e-07
2.431912078e-07
3.24021879e-07
3.362679284e-07
3.298586565e-07
4.297314588e-07
4.661112073e-07
6.938005987e-07
9.481817075e-07
9.603563006e-07
1.371486053e-06
1.351782095e-06
1.633706241e-06
1.74227672e-06
1.604198e-06
1.15800609e-06
6.659284214e-07
3.212771446e-07
1.410846303e-07
6.063266611e-08
2.681157317e-08
1.236224934e-08
5.982641717e-09
3.02575549e-09
1.494642787e-09
7.984152659e-10
4.213298247e-10
2.127370239e-10
9.854847069e-11
3.959677878e-11
1.427812817e-11
1.360917805e-11
7.90254075e-11
1.240053898e-08
2.057799361e-09
1.441594195e-09
3.500894042e-09
8.981109296e-09
1.97072947e-08
3.847589335e-08
6.881289275e-08
1.132933599e-07
1.693540848e-07
2.26186844e-07
2.69053888e-07
2.82583522e-07
2.648042086e-07
2.255815629e-07
1.662775823e-07
1.115400649e-07
7.066719259e-08
4.393197569e-08
3.050417466e-08
2.690338419e-08
2.762414032e-08
3.812913281e-08
3.882812314e-08
3.950769841e-08
4.019416191e-08
3.602848398e-08
3.349069331e-08
3.284747921e-08
3.356445603e-08
3.312120569e-08
3.074391743e-08
3.076100961e-08
2.657576964e-08
2.808795927e-08
2.759400684e-08
2.460032475e-08
2.599788292e-08
2.607509842e-08
2.471766462e-08
2.426901733e-08
2.519488659e-08
2.485938574e-08
2.369185323e-08
2.373628754e-08
2.478174652e-08
2.476349577e-08
2.369818705e-08
2.329119003e-08
2.441380106e-08
2.472761367e-08
2.388150007e-08
2.313738847e-08
2.435069784e-08
2.466532795e-08
2.39075111e-08
2.342786333e-08
2.4683465e-08
2.494629351e-08
2.432457497e-08
2.438498839e-08
2.575748149e-08
2.594515616e-08
2.548006292e-08
2.613458812e-08
2.76803104e-08
2.772225859e-08
2.747792426e-08
2.867626821e-08
3.043433759e-08
3.016918976e-08
3.031590497e-08
3.220268861e-08
3.42496917e-08
3.337281068e-08
3.423479605e-08
3.704107161e-08
3.948101691e-08
3.735235086e-08
3.960382402e-08
4.371213472e-08
4.670619149e-08
4.188196246e-08
4.701296205e-08
5.280542973e-08
5.654843491e-08
4.51877866e-08
5.710950893e-08
6.517919283e-08
6.997020524e-08
5.600419811e-08
7.087317401e-08
6.864135937e-08
8.75875171e-08
7.891990017e-08
8.891363168e-08
8.601052129e-08
1.087690845e-07
1.038941719e-07
1.104926067e-07
1.06179172e-07
1.277631283e-07
1.263487198e-07
1.29540799e-07
1.22724795e-07
1.309994803e-07
1.320960052e-07
1.320815131e-07
1.227282172e-07
1.06854823e-07
1.079576004e-07
1.065955298e-07
9.762819402e-08
6.718802923e-08
6.620657452e-08
6.61852441e-08
6.225286695e-08
5.158418597e-08
5.164533033e-08
5.188169332e-08
5.043202698e-08
6.024207561e-08
6.211854143e-08
6.207407492e-08
6.088326984e-08
8.404450262e-08
8.729277036e-08
8.733828018e-08
8.648949995e-08
1.287271024e-07
1.358443119e-07
1.367170315e-07
1.357687118e-07
2.072743675e-07
2.217483636e-07
2.249972062e-07
2.240558912e-07
3.347363132e-07
3.593678249e-07
3.61330408e-07
3.568356629e-07
5.394398469e-07
5.524624578e-07
5.404446016e-07
7.869186826e-07
7.933600822e-07
1.045710697e-06
1.058519505e-06
1.083368343e-06
1.351616667e-06
1.497176989e-06
2.081114873e-06
2.846396356e-06
2.912599528e-06
3.999353438e-06
4.309170871e-06
5.297289094e-06
5.770237006e-06
5.45686583e-06
4.045714406e-06
2.400327892e-06
1.198979522e-06
5.432537544e-07
2.388276538e-07
1.070450618e-07
4.965554317e-08
2.406031694e-08
1.213756676e-08
6.118052187e-09
3.204957083e-09
1.641660081e-09
7.932987365e-10
3.441753159e-10
1.253052898e-10
4.000813418e-11
3.862098099e-11
2.37832895e-10
3.63312305e-08
5.564347326e-09
3.663287354e-09
9.555936772e-09
2.602889701e-08
5.936290643e-08
1.186397936e-07
2.151543205e-07
3.56932005e-07
5.35406751e-07
7.161067903e-07
8.507052454e-07
8.916732176e-07
8.352708664e-07
7.034997896e-07
5.193574574e-07
3.485732493e-07
2.205501208e-07
1.369836977e-07
9.478452509e-08
8.302614144e-08
8.451816291e-08
1.074581581e-07
1.102982771e-07
1.117617752e-07
1.119933684e-07
1.027332935e-07
9.566743759e-08
9.353229673e-08
9.335669957e-08
9.340054336e-08
8.592627154e-08
8.58276176e-08
7.541107563e-08
7.807907474e-08
7.716226647e-08
6.984594624e-08
7.251946266e-08
7.262735136e-08
6.984548439e-08
6.836979967e-08
6.997102742e-08
6.953320679e-08
6.711348511e-08
6.706283753e-08
6.916954099e-08
6.913596457e-08
6.697349103e-08
6.616108437e-08
6.849471442e-08
6.887442908e-08
6.740426244e-08
6.599385984e-08
6.852812925e-08
6.884871816e-08
6.764263923e-08
6.706113883e-08
6.971833204e-08
6.985418087e-08
6.904472733e-08
7.00528723e-08
7.302074609e-08
7.289906148e-08
7.256172837e-08
7.535649472e-08
7.876927439e-08
7.819672389e-08
7.851312524e-08
8.301702119e-08
8.695882772e-08
8.552216408e-08
8.69343385e-08
9.359868215e-08
9.825460867e-08
9.522730612e-08
9.852080779e-08
1.080699295e-07
1.136930345e-07
1.076387908e-07
1.143511053e-07
1.279756752e-07
1.349695971e-07
1.228540674e-07
1.361523699e-07
1.551002989e-07
1.639416012e-07
1.382223931e-07
1.658478545e-07
1.631801021e-07
2.034832064e-07
1.718580326e-07
2.063536938e-07
2.032794992e-07
2.555795405e-07
2.337883003e-07
2.596070939e-07
2.554322721e-07
3.184559906e-07
3.044021877e-07
3.234398703e-07
3.159557754e-07
3.749871272e-07
3.687548527e-07
3.796699255e-07
3.650623118e-07
3.847120939e-07
3.843616011e-07
3.86692413e-07
3.63986112e-07
3.14408729e-07
3.138137515e-07
3.120179664e-07
2.889851246e-07
1.986134344e-07
1.924992403e-07
1.942437378e-07
1.851943276e-07
1.527221927e-07
1.505731269e-07
1.527563849e-07
1.508842814e-07
1.780019978e-07
1.811440883e-07
1.826809998e-07
1.821996981e-07
2.481057465e-07
2.544679533e-07
2.567373026e-07
2.583344401e-07
3.804605857e-07
3.969834302e-07
3.996829693e-07
4.031687206e-07
6.134144567e-07
6.490907888e-07
6.542099472e-07
6.627793484e-07
9.879182777e-07
1.047229622e-06
1.055252292e-06
1.064312352e-06
1.574214879e-06
1.603599833e-06
1.605244114e-06
2.283986941e-06
2.30779779e-06
3.052671597e-06
3.055966174e-06
3.202206857e-06
3.956860563e-06
4.407117825e-06
5.917766991e-06
8.10031992e-06
8.343827586e-06
1.115980895e-05
1.26968645e-05
1.545946713e-05
1.672003444e-05
1.566916767e-05
1.160447811e-05
6.943432299e-06
3.526905514e-06
1.626848689e-06
7.264312105e-07
3.292789179e-07
1.539146066e-07
7.492669033e-08
3.786730071e-08
1.959848132e-08
1.00146767e-08
5.051867058e-09
2.37792955e-09
9.891906715e-10
3.389057157e-10
9.872992949e-11
8.529760266e-11
5.277124663e-10
8.769213687e-08
1.311127279e-08
8.276306743e-09
2.21363425e-08
6.281853603e-08
1.479832055e-07
3.012509723e-07
5.501574138e-07
9.121563714e-07
1.361154039e-06
1.807351433e-06
2.130592807e-06
2.222185637e-06
2.080727492e-06
1.749601132e-06
1.304220622e-06
8.850977324e-07
5.66042301e-07
3.561589973e-07
2.492035277e-07
2.189514704e-07
2.22532028e-07
2.694323919e-07
2.783503999e-07
2.813261121e-07
2.794826766e-07
2.602051139e-07
2.433136111e-07
2.367637244e-07
2.331099262e-07
2.34999829e-07
2.150794013e-07
2.145958711e-07
1.906794724e-07
1.948368684e-07
1.933147371e-07
1.766991407e-07
1.814138392e-07
1.815050771e-07
1.761676753e-07
1.72053306e-07
1.744321962e-07
1.741771945e-07
1.694621962e-07
1.68945459e-07
1.728858128e-07
1.72829616e-07
1.687346951e-07
1.671163991e-07
1.716539182e-07
1.717577915e-07
1.695575003e-07
1.669467383e-07
1.718885673e-07
1.717426914e-07
1.702321668e-07
1.697788153e-07
1.750171359e-07
1.743433687e-07
1.738536268e-07
1.77474754e-07
1.834483766e-07
1.820658587e-07
1.827988825e-07
1.910201695e-07
1.980173629e-07
1.954695807e-07
1.978602271e-07
2.105597364e-07
2.187394649e-07
2.140975921e-07
2.191513093e-07
2.37522693e-07
2.472920832e-07
2.390236437e-07
2.484243952e-07
2.743709811e-07
2.862889018e-07
2.715047933e-07
2.883969675e-07
3.250021606e-07
3.399752178e-07
3.128905256e-07
3.433868459e-07
3.939509039e-07
4.130233988e-07
3.600993543e-07
4.18225124e-07
4.156789325e-07
5.126891314e-07
4.477865949e-07
5.202565594e-07
5.177658761e-07
6.44055104e-07
5.956577535e-07
6.543890882e-07
6.504831705e-07
8.024732145e-07
7.682446905e-07
8.148497879e-07
8.03938048e-07
9.443162269e-07
9.257351159e-07
9.551690349e-07
9.268320075e-07
9.679057747e-07
9.612651226e-07
9.709429916e-07
9.215290858e-07
7.932027649e-07
7.854568572e-07
7.846767718e-07
7.320040521e-07
5.044065071e-07
4.83849314e-07
4.912516303e-07
4.722664502e-07
3.890883768e-07
3.798557315e-07
3.879080063e-07
3.868834861e-07
4.533834312e-07
4.574058217e-07
4.641767932e-07
4.676764509e-07
6.320767792e-07
6.429284168e-07
6.523872169e-07
6.628722562e-07
9.708703048e-07
1.00595097e-06
1.013037203e-06
1.031849341e-06
1.567506206e-06
1.64757468e-06
1.652902497e-06
1.693347861e-06
2.520615927e-06
2.650683366e-06
2.674822242e-06
2.733152531e-06
3.984582967e-06
4.044215824e-06
4.108052876e-06
5.747732339e-06
5.816012153e-06
7.687942735e-06
7.650586189e-06
8.126709247e-06
9.979729215e-06
1.110644903e-05
1.451004011e-05
1.970838961e-05
2.037577069e-05
2.65401651e-05
3.107477008e-05
3.693333631e-05
3.924969554e-05
3.602723018e-05
2.655797673e-05
1.60381953e-05
8.319980861e-06
3.926659449e-06
1.790076591e-06
8.236951821e-07
3.891002744e-07
1.906449317e-07
9.656359111e-08
4.984004961e-08
2.535087993e-08
1.255300842e-08
5.742404907e-09
2.301060323e-09
7.562847939e-10
2.072383597e-10
1.583077022e-10
9.672322128e-10
1.789922896e-07
2.649048687e-08
1.6439905e-08
4.468772043e-08
1.30315661e-07
3.150765107e-07
6.523391618e-07
1.197604758e-06
1.976177465e-06
2.913850303e-06
3.810750703e-06
4.42850634e-06
4.580079335e-06
4.282705462e-06
3.615950968e-06
2.743657698e-06
1.903542689e-06
1.246054602e-06
8.053325421e-07
5.768828559e-07
5.113950133e-07
5.201125322e-07
6.091621864e-07
6.31910661e-07
6.374875568e-07
6.292088183e-07
5.917517148e-07
5.556531641e-07
5.383556082e-07
5.254087313e-07
5.321788943e-07
4.856483356e-07
4.841862232e-07
4.338878494e-07
4.39293497e-07
4.371651018e-07
4.024826892e-07
4.100818185e-07
4.099968702e-07
4.005030236e-07
3.906749603e-07
3.933774607e-07
3.942596254e-07
3.856707518e-07
3.839422734e-07
3.907479697e-07
3.906691425e-07
3.834856557e-07
3.804585307e-07
3.887084854e-07
3.874664886e-07
3.849506671e-07
3.804388246e-07
3.894562985e-07
3.874862087e-07
3.865794389e-07
3.870718037e-07
3.96746052e-07
3.934821135e-07
3.949243727e-07
4.047616877e-07
4.160354701e-07
4.110851957e-07
4.15337338e-07
4.357244522e-07
4.491680113e-07
4.415692079e-07
4.495564701e-07
4.803288295e-07
4.962198096e-07
4.840897508e-07
4.978753957e-07
5.418296882e-07
5.61000445e-07
5.413955544e-07
5.642702275e-07
6.25817207e-07
6.494104639e-07
6.169833582e-07
6.548702096e-07
7.41057801e-07
7.709456608e-07
7.154821478e-07
7.793221047e-07
8.977663919e-07
9.360548217e-07
8.349467775e-07
9.48417722e-07
1.110738553e-06
1.160918153e-06
1.037520139e-06
1.178498789e-06
1.180735029e-06
1.456537987e-06
1.358740263e-06
1.480066038e-06
1.481114598e-06
1.811243418e-06
1.737497615e-06
1.838687587e-06
1.825959362e-06
2.125552726e-06
2.080434283e-06
2.148262198e-06
2.097466501e-06
2.174229351e-06
2.150592126e-06
2.177889146e-06
2.079530774e-06
1.789027055e-06
1.761838393e-06
1.766172692e-06
1.656355492e-06
1.148906628e-06
1.094624288e-06
1.116273966e-06
1.07915237e-06
8.914717981e-07
8.644246148e-07
8.870459182e-07
8.903353087e-07
1.040029253e-06
1.042668269e-06
1.063141959e-06
1.078315862e-06
1.450861151e-06
1.466817336e-06
1.49496254e-06
1.52883037e-06
2.231371945e-06
2.300945302e-06
2.317547218e-06
2.376221516e-06
3.602809081e-06
3.769582638e-06
3.768274426e-06
3.891395588e-06
5.773439698e-06
6.03665236e-06
6.097780303e-06
6.285543492e-06
9.031606206e-06
9.140821567e-06
9.379861265e-06
1.288975217e-05
1.305460852e-05
1.714129512e-05
1.701428245e-05
1.8198081e-05
2.219965941e-05
2.455658273e-05
3.128706958e-05
4.179545953e-05
4.325499882e-05
5.459830506e-05
6.42785682e-05
7.361471023e-05
7.625606289e-05
6.811400484e-05
5.012786548e-05
3.072356664e-05
1.640217786e-05
7.987427986e-06
3.746395097e-06
1.759346025e-06
8.433379999e-07
4.169769257e-07
2.118394889e-07
1.089208475e-07
5.489726013e-08
2.663738742e-08
1.186542829e-08
4.621882516e-09
1.479655614e-09
3.878065579e-10
2.597385974e-10
1.552898073e-09
3.209013508e-07
4.729427726e-08
2.925553952e-08
8.054450907e-08
2.391348602e-07
5.892430677e-07
1.236155842e-06
2.274061351e-06
3.714924016e-06
5.367503969e-06
6.849856684e-06
7.784416676e-06
7.937991341e-06
7.393843502e-06
6.300158615e-06
4.912423349e-06
3.533478725e-06
2.408474219e-06
1.627732889e-06
1.211022424e-06
1.089922265e-06
1.110955068e-06
1.26865504e-06
1.318682487e-06
1.328264546e-06
1.304026175e-06
1.235407611e-06
1.165101765e-06
1.12437938e-06
1.091023229e-06
1.108261992e-06
1.010152172e-06
1.006545017e-06
9.088007961e-07
9.137470899e-07
9.115677986e-07
8.445613273e-07
8.556777367e-07
8.550270351e-07
8.393762357e-07
8.185410207e-07
8.197760932e-07
8.241434488e-07
8.094631305e-07
8.052290648e-07
8.160706987e-07
8.159941244e-07
8.043281788e-07
7.990896062e-07
8.131909395e-07
8.080337766e-07
8.069019194e-07
7.997485892e-07
8.152443235e-07
8.083259204e-07
8.106167251e-07
8.141484894e-07
8.310157165e-07
8.21273992e-07
8.28493959e-07
8.51700345e-07
8.718183324e-07
8.584892932e-07
8.715748223e-07
9.169365867e-07
9.413530148e-07
9.225900597e-07
9.433324299e-07
1.010711538e-06
1.039880384e-06
1.012178293e-06
1.044472704e-06
1.13985761e-06
1.175377632e-06
1.133507048e-06
1.183311884e-06
1.31599501e-06
1.360049457e-06
1.294799713e-06
1.372515473e-06
1.557134717e-06
1.613315982e-06
1.507888903e-06
1.631791204e-06
1.884165164e-06
1.956410543e-06
1.77560425e-06
1.983043207e-06
1.993584036e-06
2.421813383e-06
2.202972026e-06
2.458976603e-06
2.475418416e-06
3.029729565e-06
2.848319831e-06
3.078516565e-06
3.095322946e-06
3.751424379e-06
3.608901958e-06
3.8068305e-06
3.798137856e-06
4.378840588e-06
4.285111568e-06
4.422110307e-06
4.337852962e-06
4.464125347e-06
4.404397073e-06
4.466271284e-06
4.286523457e-06
3.696760472e-06
3.627009474e-06
3.6446434e-06
3.433831493e-06
2.41100646e-06
2.287297652e-06
2.339959843e-06
2.271689569e-06
1.889395164e-06
1.823165898e-06
1.878016727e-06
1.893547793e-06
2.209624448e-06
2.204255676e-06
2.256332547e-06
2.299459936e-06
3.083229853e-06
3.101919519e-06
3.17300782e-06
3.26009175e-06
4.739782763e-06
4.869550883e-06
4.905264845e-06
5.054084063e-06
7.626607271e-06
7.950759348e-06
7.92524101e-06
8.233266611e-06
1.211813633e-05
1.260982912e-05
1.274631657e-05
1.321940415e-05
1.86417863e-05
1.882218079e-05
1.945299399e-05
2.616499439e-05
2.651025976e-05
3.442597391e-05
3.416997386e-05
3.659812276e-05
4.433467758e-05
4.860132253e-05
6.055046971e-05
7.875336937e-05
8.135520224e-05
9.870381727e-05
0.0001139733194
0.0001246188265
0.0001252435207
0.0001091074679
8.064367652e-05
5.045411596e-05
2.786750959e-05
1.411212573e-05
6.855579872e-06
3.299872862e-06
1.610504084e-06
8.05643125e-07
4.110558172e-07
2.105723485e-07
1.050570017e-07
5.006717228e-08
2.185204006e-08
8.355224159e-09
2.632213157e-09
6.664026836e-10
3.884148909e-10
2.254006437e-09
5.174461621e-07
7.61510205e-08
4.712912415e-08
1.308164085e-07
3.929177325e-07
9.810109057e-07
2.077418204e-06
3.818222269e-06
6.145728944e-06
8.627296353e-06
1.063221892e-05
1.171209173e-05
1.169927836e-05
1.079473528e-05
9.310491785e-06
7.52408666e-06
5.712297574e-06
4.14459986e-06
2.992078521e-06
2.346993322e-06
2.15788946e-06
2.206988439e-06
2.466762652e-06
2.564028195e-06
2.578906764e-06
2.520955341e-06
2.401684098e-06
2.27621653e-06
2.188599151e-06
2.116302319e-06
2.152632328e-06
1.962925449e-06
1.955098023e-06
1.778852366e-06
1.778553955e-06
1.778126923e-06
1.657983731e-06
1.672297897e-06
1.670273487e-06
1.646607155e-06
1.6066496e-06
1.601952036e-06
1.614662845e-06
1.591218137e-06
1.582575512e-06
1.598262394e-06
1.598275533e-06
1.580966291e-06
1.572764368e-06
1.595355005e-06
1.581036387e-06
1.585617137e-06
1.57562924e-06
1.600658164e-06
1.58260176e-06
1.593889405e-06
1.605276162e-06
1.633030428e-06
1.609397743e-06
1.630214621e-06
1.680206508e-06
1.714179097e-06
1.683631494e-06
1.715695077e-06
1.808970861e-06
1.850946286e-06
1.810239939e-06
1.856729152e-06
1.993439578e-06
2.044109476e-06
1.98722301e-06
2.054945465e-06
2.247003598e-06
2.309258669e-06
2.227608326e-06
2.326570755e-06
2.592040518e-06
2.669777385e-06
2.548689124e-06
2.695844155e-06
3.062702168e-06
3.162330027e-06
2.976396476e-06
3.199924776e-06
3.698030893e-06
3.826332992e-06
3.525303906e-06
3.87940371e-06
3.914679063e-06
4.720502217e-06
4.361504629e-06
4.793115752e-06
4.842984119e-06
5.874578724e-06
5.568678757e-06
5.967758351e-06
6.021954508e-06
7.219085871e-06
6.974872514e-06
7.321489198e-06
7.330961089e-06
8.351360776e-06
8.185250184e-06
8.42602867e-06
8.298652045e-06
8.472227701e-06
8.351035151e-06
8.466834602e-06
8.168006911e-06
7.08635183e-06
6.938921416e-06
6.980987166e-06
6.608942362e-06
4.73514357e-06
4.483519882e-06
4.595988812e-06
4.477988247e-06
3.767883482e-06
3.623545796e-06
3.743625987e-06
3.788184116e-06
4.419568336e-06
4.39088933e-06
4.509158768e-06
4.612680055e-06
6.155586397e-06
6.167354715e-06
6.327577528e-06
6.525328156e-06
9.418944442e-06
9.644846466e-06
9.71615658e-06
1.004932464e-05
1.500868602e-05
1.559207386e-05
1.551019326e-05
1.618038553e-05
2.34735829e-05
2.431427111e-05
2.458620203e-05
2.560162288e-05
3.527551698e-05
3.554559838e-05
3.690633866e-05
4.859564822e-05
4.923602764e-05
6.330599663e-05
6.288253301e-05
6.724871142e-05
8.091867303e-05
8.796439372e-05
0.0001072705929
0.0001342403142
0.0001379807211
0.000159813556
0.0001770413574
0.0001851005041
0.000180609776
0.0001553766006
0.0001161723764
7.44637016e-05
4.236023938e-05
2.231790911e-05
1.125482262e-05
5.557175398e-06
2.760749693e-06
1.397817612e-06
7.168059494e-07
3.66337407e-07
1.813092093e-07
8.531797535e-08
3.675749989e-08
1.390266771e-08
4.338105512e-09
1.068606741e-09
5.400626673e-10
3.017498541e-09
7.631903421e-07
1.122619939e-07
6.924166487e-08
1.924878538e-07
5.823101202e-07
1.467593994e-06
3.131234425e-06
5.749401736e-06
9.110357913e-06
1.236572236e-05
1.463472646e-05
1.558273295e-05
1.522200163e-05
1.392388685e-05
1.214325641e-05
1.018153427e-05
8.231938145e-06
6.473600621e-06
5.078620334e-06
4.246248984e-06
4.006139084e-06
4.113513574e-06
4.507365177e-06
4.675536113e-06
4.695841255e-06
4.576835196e-06
4.379974238e-06
4.175751167e-06
4.001677245e-06
3.864136031e-06
3.929985095e-06
3.59162282e-06
3.576269162e-06
3.281659461e-06
3.266034293e-06
3.271327151e-06
3.0719197e-06
3.086785528e-06
3.081933132e-06
3.049895829e-06
2.980065949e-06
2.960591736e-06
2.990224432e-06
2.955692389e-06
2.940379625e-06
2.960213714e-06
2.960529292e-06
2.93781656e-06
2.926694134e-06
2.960214722e-06
2.927552174e-06
2.946590652e-06
2.935590029e-06
2.973201389e-06
2.933447216e-06
2.964619568e-06
2.994009111e-06
3.036766849e-06
2.987017803e-06
3.03519499e-06
3.135668319e-06
3.189620093e-06
3.127811223e-06
3.195809804e-06
3.375493411e-06
3.443422408e-06
3.364401534e-06
3.45733966e-06
3.717376223e-06
3.8002399e-06
3.694578402e-06
3.823372319e-06
4.18588356e-06
4.288570291e-06
4.143535137e-06
4.323505455e-06
4.820976293e-06
4.949917327e-06
4.744495137e-06
5.000699405e-06
5.682318822e-06
5.848040223e-06
5.54827315e-06
5.919445023e-06
6.836033903e-06
7.049071568e-06
6.592279192e-06
7.147644341e-06
7.235867018e-06
8.646701619e-06
8.116702538e-06
8.778348073e-06
8.896814979e-06
1.066795309e-05
1.021458052e-05
1.08317539e-05
1.096143675e-05
1.295195086e-05
1.2596726e-05
1.312400381e-05
1.317883875e-05
1.478346528e-05
1.454365781e-05
1.489791454e-05
1.472778225e-05
1.490307718e-05
1.470355575e-05
1.487743128e-05
1.443442817e-05
1.265082384e-05
1.238908868e-05
1.246047945e-05
1.186440329e-05
8.767357359e-06
8.308204311e-06
8.521308051e-06
8.331416303e-06
7.127817282e-06
6.842128799e-06
7.082232325e-06
7.189334894e-06
8.375426431e-06
8.294784848e-06
8.537405683e-06
8.761812439e-06
1.15906337e-05
1.157452067e-05
1.189815599e-05
1.230709362e-05
1.753294795e-05
1.789444962e-05
1.802620316e-05
1.869704017e-05
2.746165874e-05
2.842409532e-05
2.824898674e-05
2.952737794e-05
4.203219926e-05
4.33481996e-05
4.38333426e-05
4.573406308e-05
6.168872175e-05
6.206134339e-05
6.460571512e-05
8.402804323e-05
8.512884734e-05
0.0001089771919
0.0001082474011
0.0001156357201
0.0001380900334
0.0001488421475
0.0001768502145
0.000210971055
0.0002153124537
0.0002376510163
0.0002511211981
0.0002534535221
0.00024144317
0.0002084777051
0.0001594048514
0.0001054951808
6.140782838e-05
3.302310252e-05
1.71480971e-05
8.648013166e-06
4.346726061e-06
2.217672486e-06
1.140802823e-06
5.821359638e-07
2.866769083e-07
1.339507663e-07
5.732085275e-08
2.15613313e-08
6.691401686e-09
1.61345655e-09
7.092604475e-10
3.788455821e-09
1.044979743e-06
1.536385761e-07
9.372469926e-08
2.590420725e-07
7.871671242e-07
1.999661773e-06
4.301415279e-06
7.920770877e-06
1.24195777e-05
1.633697982e-05
1.864540878e-05
1.927704042e-05
1.85065973e-05
1.687357843e-05
1.492688102e-05
1.297000063e-05
1.114643596e-05
9.500062647e-06
8.112883146e-06
7.225902249e-06
6.998338527e-06
7.2103842e-06
7.749892511e-06
8.007024792e-06
8.030213667e-06
7.819317473e-06
7.51308589e-06
7.213779726e-06
6.895509896e-06
6.663268505e-06
6.766297766e-06
6.210568796e-06
6.18314347e-06
5.728812764e-06
5.680740059e-06
5.698479653e-06
5.394152932e-06
5.40281651e-06
5.392913597e-06
5.355908743e-06
5.244743541e-06
5.196189177e-06
5.255342896e-06
5.209455234e-06
5.185545552e-06
5.205475152e-06
5.20650218e-06
5.182010472e-06
5.170074059e-06
5.215176206e-06
5.150812925e-06
5.198756211e-06
5.193090129e-06
5.244697392e-06
5.168304649e-06
5.236425663e-06
5.302929387e-06
5.363683241e-06
5.271201453e-06
5.367161588e-06
5.556498719e-06