/*--------------------------------*- C++ -*----------------------------------*\
| =========                 |                                                 |
| \\      /  F ield         | OpenFOAM: The Open Source CFD Toolbox           |
|  \\    /   O peration     | Version:  2206                                  |
|   \\  /    A nd           | Website:  www.openfoam.com                      |
|    \\/     M anipulation  |                                                 |
\*---------------------------------------------------------------------------*/
FoamFile
{
    version     2.0;
    format      ascii;
    arch        "LSB;label=32;scalar=64";
    class       volScalarField;
    location    "0";
    object      nut;
}
// * * * * * * * * * * * * * * * * * * * * * * * * * * * * * * * * * * * * * //

dimensions      [0 2 -1 0 0 0 0];

internalField   nonuniform List<scalar> 
31329
(
3.899420696e-13
4.050349798e-13
2.717670165e-14
5.378018096e-14
1.271624402e-13
2.024420919e-13
2.68661083e-13
3.098214783e-13
3.246082399e-13
3.314515242e-13
3.588623584e-13
4.178363681e-13
4.765215888e-13
4.738806613e-13
3.968088961e-13
2.947726203e-13
2.259854611e-13
2.143444335e-13
2.808907221e-13
4.608737514e-13
7.796169669e-13
1.198411346e-12
1.755085272e-12
2.159677112e-12
2.244506696e-12
2.534140235e-12
2.479964032e-12
2.492313601e-12
2.293693293e-12
2.256794742e-12
2.210880347e-12
1.942070009e-12
1.920481984e-12
1.619136689e-12
1.55938796e-12
1.540182477e-12
1.246824094e-12
1.186395469e-12
1.172359784e-12
1.13856578e-12
8.918157703e-13
8.537764337e-13
8.552371986e-13
8.429180036e-13
7.103553841e-13
6.880866036e-13
6.864037157e-13
6.944816344e-13
6.867012738e-13
6.802180287e-13
6.741868552e-13
6.927509825e-13
7.832195477e-13
7.90975178e-13
7.879513039e-13
8.166595727e-13
9.897718405e-13
1.016671413e-12
1.023519152e-12
1.044186476e-12
1.197432441e-12
1.232117511e-12
1.254544662e-12
1.234128247e-12
1.20227706e-12
1.195246932e-12
1.201313648e-12
1.174271286e-12
1.014460578e-12
9.795236455e-13
9.665868895e-13
9.551133064e-13
8.024976642e-13
7.733391416e-13
7.589182894e-13
7.55882866e-13
6.571199445e-13
6.416266508e-13
6.31315322e-13
6.311983797e-13
5.732576362e-13
5.67934897e-13
5.590998249e-13
5.60914145e-13
5.163074053e-13
5.141943069e-13
4.938776176e-13
5.084928383e-13
4.673478994e-13
4.666737083e-13
4.453238978e-13
4.623811677e-13
4.507092939e-13
4.267213781e-13
4.196949774e-13
4.236640865e-13
4.133043105e-13
3.865116615e-13
3.872668532e-13
3.825883761e-13
3.687299674e-13
3.288920791e-13
3.278812771e-13
3.229393086e-13
3.087342143e-13
2.658574806e-13
2.643973411e-13
2.601373031e-13
2.473005024e-13
2.181716969e-13
2.211779928e-13
2.141484552e-13
1.978981145e-13
1.713481246e-13
1.75805911e-13
1.6867485e-13
1.523074374e-13
1.464697648e-13
1.553233697e-13
1.479304048e-13
1.32248973e-13
1.552285169e-13
1.692477279e-13
1.633331541e-13
1.526288634e-13
2.487113846e-13
2.616244107e-13
2.693739025e-13
2.898195354e-13
6.599518621e-13
6.755588345e-13
6.954444409e-13
8.309450355e-13
2.149366932e-12
2.292906417e-12
2.281470968e-12
2.658887256e-12
5.526860178e-12
5.993405551e-12
6.150119814e-12
6.773546201e-12
1.05753284e-11
1.09099484e-11
1.114919038e-11
1.415219073e-11
1.432410204e-11
1.643054332e-11
1.680713636e-11
1.733165154e-11
1.975771491e-11
2.104926661e-11
2.505386698e-11
3.27668553e-11
3.484295772e-11
4.599771478e-11
6.32806145e-11
8.42647297e-11
1.009004013e-10
1.080437431e-10
9.612214085e-11
6.99120869e-11
4.102513914e-11
1.976467129e-11
8.155389369e-12
3.035163788e-12
1.064409757e-12
3.64377778e-13
1.263038304e-13
4.428177916e-14
1.723148998e-14
7.341906387e-15
3.460811498e-15
1.78034994e-15
9.066213063e-16
3.726798857e-16
9.776032623e-17
1.415225982e-17
4.941276995e-13
3.872151015e-13
7.276843905e-14
5.681984995e-14
1.192199326e-13
1.890861162e-13
2.509515576e-13
2.899219179e-13
3.048328731e-13
3.129177875e-13
3.408741149e-13
4.019060035e-13
4.688233907e-13
4.875028542e-13
4.951652244e-13
4.683787735e-13
4.776304314e-13
5.09349602e-13
6.592359573e-13
9.052029009e-13
1.311618724e-12
1.836754809e-12
3.941503774e-12
4.200545643e-12
4.360341729e-12
4.861895975e-12
4.040373455e-12
3.900504117e-12
3.55233042e-12
3.8232031e-12
3.621975775e-12
3.184825845e-12
3.187439401e-12
2.426079601e-12
2.603237826e-12
2.525626323e-12
1.850367971e-12
1.957439009e-12
1.959041549e-12
1.801353625e-12
1.329637686e-12
1.375780424e-12
1.344113199e-12
1.257223717e-12
9.114342503e-13
9.29979614e-13
9.27881315e-13
8.965835545e-13
7.847500163e-13
8.016144246e-13
8.070954554e-13
7.989718822e-13
8.531021764e-13
8.792549449e-13
8.865175158e-13
8.887652639e-13
1.074267213e-12
1.119414813e-12
1.135450592e-12
1.129884621e-12
1.32336848e-12
1.384147831e-12
1.413710785e-12
1.376717645e-12
1.464816454e-12
1.524925925e-12
1.552504755e-12
1.497345075e-12
1.432648988e-12
1.500895172e-12
1.516167778e-12
1.46764623e-12
1.299070439e-12
1.381572344e-12
1.375985682e-12
1.354621988e-12
1.189443426e-12
1.285824358e-12
1.238234111e-12
1.267533728e-12
1.149974417e-12
1.261812861e-12
1.11399012e-12
1.250196308e-12
1.152673535e-12
1.279195633e-12
8.493789122e-13
1.273011192e-12
1.135543537e-12
1.241824035e-12
8.087101846e-13
1.241418114e-12
1.103121409e-12
1.126104755e-12
9.859427737e-13
1.130559478e-12
1.005080336e-12
9.430013416e-13
9.167130995e-13
9.494229578e-13
8.469824253e-13
8.489438842e-13
8.628824645e-13
8.579981413e-13
7.625692789e-13
8.259797998e-13
8.636803046e-13
8.410497154e-13
7.435616569e-13
9.808232544e-13
1.056263227e-12
1.009979004e-12
8.778055897e-13
1.243582053e-12
1.36639189e-12
1.294167966e-12
1.113984338e-12
1.572791453e-12
1.754761271e-12
1.653941625e-12
1.417832009e-12
1.942157367e-12
2.183502836e-12
2.06005401e-12
1.773600285e-12
2.609970209e-12
2.93402651e-12
2.795872275e-12
2.472696354e-12
4.131868442e-12
4.657940959e-12
4.685660694e-12
4.303587877e-12
8.449158878e-12
9.612802233e-12
1.004212905e-11
9.358127829e-12
1.754886148e-11
2.01346486e-11
2.008725406e-11
1.807582388e-11
3.183828758e-11
3.343379569e-11
2.909293325e-11
3.820694995e-11
3.80513006e-11
3.717124996e-11
3.949093838e-11
3.58827945e-11
3.593989721e-11
3.709575754e-11
4.496562778e-11
5.090539351e-11
5.160274337e-11
6.831248184e-11
7.467037436e-11
9.770666665e-11
1.166959841e-10
1.244035952e-10
1.127634288e-10
8.252691786e-11
4.896884283e-11
2.409129943e-11
1.037299009e-11
4.125796218e-12
1.595493547e-12
6.215745761e-13
2.502129505e-13
7.423169974e-14
3.343725384e-14
1.564185345e-14
7.420093136e-15
3.484101145e-15
1.527241935e-15
5.674650058e-16
1.377222824e-16
9.627301019e-17
1.170810996e-13
1.387967734e-13
9.674749485e-14
7.323468029e-14
1.203431558e-13
1.890631571e-13
2.567490834e-13
3.103307859e-13
3.518796247e-13
4.048606567e-13
4.929437731e-13
7.063204851e-13
1.074539055e-12
1.621352902e-12
2.789231051e-12
3.943208697e-12
5.15005324e-12
6.028368848e-12
7.13712914e-12
8.290188553e-12
1.000940361e-11
1.210014506e-11
2.90513229e-11
2.851500155e-11
2.959497662e-11
3.180209813e-11
2.385160064e-11
2.125567287e-11
1.985801475e-11
2.214931756e-11
2.087702906e-11
1.821927075e-11
1.833843972e-11
1.299130866e-11
1.502065848e-11
1.437983388e-11
9.860259006e-12
1.124194958e-11
1.132132969e-11
9.929759355e-12
6.964773534e-12
7.576097786e-12
7.277327053e-12
6.449883392e-12
3.72683847e-12
3.990980814e-12
3.973799286e-12
3.617878562e-12
2.353980101e-12
2.530320669e-12
2.593919625e-12
2.425754176e-12
2.088404586e-12
2.277752373e-12
2.343102368e-12
2.22270309e-12
2.366360552e-12
2.598319793e-12
2.676574896e-12
2.557951446e-12
3.2589459e-12
3.608987705e-12
3.713799998e-12
3.559332211e-12
5.130260392e-12
5.794296463e-12
5.959874813e-12
5.685156557e-12
6.946580983e-12
7.900314483e-12
8.012842224e-12
7.738136576e-12
7.648241164e-12
8.684892252e-12
8.524840788e-12
8.530680097e-12
7.854892423e-12
8.927241839e-12
8.24502607e-12
8.815246478e-12
8.252508718e-12
9.417148287e-12
7.649939929e-12
9.354325018e-12
8.897844862e-12
1.019961213e-11
5.752590222e-12
1.017929015e-11
8.954753139e-12
1.025723109e-11
5.779619867e-12
1.027410217e-11
8.943788505e-12
9.265188374e-12
7.567179365e-12
9.31014727e-12
8.084688315e-12
7.467677774e-12
6.945521048e-12
7.537710594e-12
6.603859187e-12
6.940055089e-12
6.909124514e-12
7.064744035e-12
6.2175047e-12
7.363457196e-12
7.603293051e-12
7.564572678e-12
6.728816474e-12
9.799429499e-12
1.040803288e-11
1.015979606e-11
9.032594421e-12
1.384263584e-11
1.496583574e-11
1.444089434e-11
1.27820819e-11
1.829633943e-11
1.999473436e-11
1.918275799e-11
1.694160009e-11
2.291636991e-11
2.517532418e-11
2.414818998e-11
2.141756082e-11
3.043100354e-11
3.351996629e-11
3.232900313e-11
2.916825153e-11
4.562276821e-11
5.096116448e-11
5.120363638e-11
4.704272969e-11
8.264788279e-11
9.384221165e-11
9.774184657e-11
9.020134324e-11
1.574378968e-10
1.812235055e-10
1.803199283e-10
1.584384064e-10
2.738857934e-10
2.878795013e-10
2.440552115e-10
3.122833643e-10
3.098182127e-10
2.810688044e-10
2.946022037e-10
2.616253365e-10
2.253096962e-10
2.381389404e-10
2.73409579e-10
2.694582709e-10
2.643692272e-10
3.330027411e-10
2.581166285e-10
3.274221153e-10
3.975029782e-10
4.31917754e-10
4.267378586e-10
3.280143401e-10
2.065629424e-10
1.102193444e-10
5.377638972e-11
2.504182374e-11
1.166041213e-11
5.506686351e-12
2.650196344e-12
1.044962374e-12
5.288717124e-13
2.63226729e-13
1.249148847e-13
5.403544095e-14
1.923143239e-14
4.270739361e-15
5.911164795e-16
3.86553222e-16
6.402247513e-14
7.131961526e-14
8.536578333e-14
1.024773226e-13
1.678644959e-13
2.883835538e-13
4.568278858e-13
6.802017114e-13
9.979948351e-13
1.520284471e-12
2.441622891e-12
4.319423417e-12
7.888430762e-12
1.393583459e-11
2.484744255e-11
3.655866145e-11
4.813643438e-11
5.66370106e-11
6.454587915e-11
7.254792324e-11
8.449612032e-11
9.852975795e-11
1.971659724e-10
1.965711465e-10
2.026651972e-10
2.119592368e-10
1.648786269e-10
1.431965005e-10
1.360976618e-10
1.447977474e-10
1.405028734e-10
1.207444087e-10
1.211949792e-10
8.781066163e-11
9.86758321e-11
9.516727191e-11
6.665060161e-11
7.411520885e-11
7.445012129e-11
6.625803629e-11
4.60312012e-11
4.898989436e-11
4.745440386e-11
4.241859829e-11
2.362031985e-11
2.474194657e-11
2.459733505e-11
2.25554294e-11
1.371100215e-11
1.452081977e-11
1.473073738e-11
1.385398375e-11
1.109884003e-11
1.208324939e-11
1.234864958e-11
1.169182966e-11
1.174550883e-11
1.291154374e-11
1.316275897e-11
1.270437e-11
1.732527021e-11
1.929811028e-11
1.958584576e-11
1.924068695e-11
3.110163347e-11
3.525510835e-11
3.577061347e-11
3.495325738e-11
4.555153701e-11
5.152271449e-11
5.144502116e-11
5.082077352e-11
5.216067689e-11
5.835338491e-11
5.621059191e-11
5.758758438e-11
5.464104892e-11
6.087582289e-11
5.52691951e-11
6.032262223e-11
5.806932036e-11
6.484077712e-11
5.266307028e-11
6.458513163e-11
6.304032292e-11
7.065986646e-11
4.369667162e-11
7.061324491e-11
6.382805561e-11
7.132524389e-11
4.418508224e-11
7.138924331e-11
6.363120136e-11
6.438639618e-11
5.264692288e-11
6.450271209e-11
5.722947636e-11
5.190694744e-11
4.722908542e-11
5.217438008e-11
4.686576392e-11
4.844098259e-11
4.70361327e-11
4.915515814e-11
4.446670318e-11
5.199550372e-11
5.229008689e-11
5.328617466e-11
4.900936153e-11
6.996646303e-11
7.24512923e-11
7.239014178e-11
6.674139626e-11
1.006672176e-10
1.063120361e-10
1.046614945e-10
9.576428435e-11
1.335503946e-10
1.424574568e-10
1.39211377e-10
1.269460113e-10
1.677630751e-10
1.797218618e-10
1.754632282e-10
1.608556362e-10
2.228262868e-10
2.393918486e-10
2.34692478e-10
2.186738962e-10
3.34455733e-10
3.655088993e-10
3.67487029e-10
3.482825374e-10
5.948113086e-10
6.614236042e-10
6.797637683e-10
6.495596391e-10
1.113518586e-09
1.254215361e-09
1.252724971e-09
1.145697292e-09
1.880863849e-09
1.959595037e-09
1.720284496e-09
2.121839637e-09
2.10837232e-09
1.927105558e-09
1.954780295e-09
1.808128323e-09
1.498146697e-09
1.62166907e-09
1.753890063e-09
1.726825978e-09
1.698985012e-09
2.057876513e-09
1.662191588e-09
2.126712999e-09
2.650396964e-09
2.974481567e-09
3.083023246e-09
2.456168803e-09
1.597168157e-09
8.804658493e-10
4.445089621e-10
2.141777078e-10
1.031371403e-10
5.019779679e-11
2.480325055e-11
1.116868419e-11
5.64020565e-12
2.780924913e-12
1.283071143e-12
5.083249796e-13
1.410840265e-13
1.941235653e-14
1.741510045e-15
1.059773199e-15
1.459503923e-13
1.419392859e-13
1.516531731e-13
2.015046739e-13
4.05169495e-13
8.854856339e-13
1.716778948e-12
3.01956932e-12
5.076174548e-12
8.562710434e-12
1.489528736e-11
2.741624374e-11
5.134781717e-11
9.224951627e-11
1.593625606e-10
2.331059069e-10
3.039853874e-10
3.566783149e-10
3.981569752e-10
4.424901614e-10
5.100636871e-10
5.879987943e-10
1.018618727e-09
1.037154326e-09
1.06355268e-09
1.091471889e-09
8.839885277e-10
7.631227756e-10
7.292125417e-10
7.443058735e-10
7.396340869e-10
6.284058951e-10
6.288691012e-10
4.678427039e-10
5.092105972e-10
4.950237945e-10
3.551242646e-10
3.836839455e-10
3.8430801e-10
3.480288756e-10
2.410492272e-10
2.502555052e-10
2.447527863e-10
2.217780461e-10
1.237249116e-10
1.262483399e-10
1.253855196e-10
1.168207252e-10
7.1414256e-11
7.382484767e-11
7.387164611e-11
7.080175096e-11
5.686976878e-11
6.070723773e-11
6.124362128e-11
5.901591214e-11
5.918136284e-11
6.386790514e-11
6.411751347e-11
6.340665029e-11
8.901744781e-11
9.778970982e-11
9.771777427e-11
9.866181528e-11
1.625483287e-10
1.819908675e-10
1.820887247e-10
1.820233238e-10
2.401874236e-10
2.676353846e-10
2.635793463e-10
2.654617692e-10
2.771007572e-10
3.042530144e-10
2.891836835e-10
3.013619149e-10
2.914264768e-10
3.181227486e-10
2.865548184e-10
3.160852839e-10
3.102610454e-10
3.394307592e-10
2.789334515e-10
3.387702778e-10
3.364076328e-10
3.694636408e-10
2.491769204e-10
3.695296272e-10
3.385695285e-10
3.72852865e-10
2.51909181e-10
3.728916547e-10
3.391494386e-10
3.361292393e-10
2.779099693e-10
3.358718119e-10
3.037171643e-10
2.720239491e-10
2.445707927e-10
2.724552214e-10
2.499985106e-10
2.544288419e-10
2.426259777e-10
2.573965682e-10
2.381642709e-10
2.743472603e-10
2.702160267e-10
2.804586405e-10
2.647083284e-10
3.70162866e-10
3.755279308e-10
3.822222815e-10
3.621900021e-10
5.361961506e-10
5.556663806e-10
5.558958573e-10
5.213115018e-10
7.114331734e-10
7.442439297e-10
7.38204011e-10
6.894182745e-10
8.950264859e-10
9.39801615e-10
9.307568623e-10
8.745966494e-10
1.189375922e-09
1.25258558e-09
1.244517806e-09
1.188249389e-09
1.788551891e-09
1.921277125e-09
1.932752609e-09
1.877228817e-09
3.147752549e-09
3.441262959e-09
3.496600654e-09
3.440784979e-09
5.812837504e-09
6.428325448e-09
6.44212151e-09
6.091403485e-09
9.548251657e-09
9.868996948e-09
8.93872426e-09
1.06912199e-08
1.064015657e-08
9.826899049e-09
9.727428586e-09
9.305369993e-09
7.617678822e-09
8.326508207e-09
8.60501591e-09
8.607213212e-09
8.52420132e-09
1.008194558e-08
8.99470417e-09
1.170270794e-08
1.491830568e-08
1.718449647e-08
1.833582935e-08
1.492352556e-08
9.837164372e-09
5.482958051e-09
2.776773353e-09
1.33759226e-09
6.434759368e-10
3.128338048e-10
1.544392075e-10
7.636866867e-11
3.611950178e-11
1.718129962e-11
7.286134097e-12
2.392320905e-12
4.916198151e-13
5.198770632e-14
3.875427051e-15
2.354335724e-15
3.357073004e-13
3.188076506e-13
3.233409266e-13
4.344869057e-13
1.046403508e-12
2.929612697e-12
6.78222507e-12
1.320115991e-11
2.350759568e-11
4.108078058e-11
7.346285334e-11
1.366790127e-10
2.570775652e-10
4.622886716e-10
7.803965446e-10
1.130003426e-09
1.456670076e-09
1.696462464e-09
1.869498129e-09
2.066882163e-09
2.373262177e-09
2.721970209e-09
4.26752827e-09
4.423853782e-09
4.518777176e-09
4.574709061e-09
3.822706444e-09
3.299785526e-09
3.155748266e-09
3.125692287e-09
3.160519725e-09
2.664493689e-09
2.660352926e-09
2.01921021e-09
2.144869595e-09
2.098597752e-09
1.531857843e-09
1.619435364e-09
1.618328236e-09
1.485314909e-09
1.025189271e-09
1.043420806e-09
1.028813848e-09
9.422435409e-10
5.275716609e-10
5.276200885e-10
5.236471553e-10
4.942577114e-10
3.059034161e-10
3.105108219e-10
3.072385712e-10
2.992731772e-10
2.429974133e-10
2.552664652e-10
2.546799308e-10
2.493894487e-10
2.519743444e-10
2.677237494e-10
2.653282961e-10
2.678889037e-10
3.828475373e-10
4.155962251e-10
4.10127123e-10
4.229956848e-10
6.999769221e-10
7.75508276e-10
7.671573905e-10
7.804766777e-10
1.03264329e-09
1.136884707e-09
1.107508679e-09
1.132132825e-09
1.193425892e-09
1.291891967e-09
1.216051307e-09
1.282979565e-09
1.256539571e-09
1.351099104e-09
1.211857651e-09
1.345079351e-09
1.338542014e-09
1.442764095e-09
1.199684339e-09
1.441980732e-09
1.447717206e-09
1.566368431e-09
1.12517056e-09
1.567494577e-09
1.458900599e-09
1.578674999e-09
1.135988599e-09
1.577800104e-09
1.455994393e-09
1.419527242e-09
1.186982028e-09
1.41569975e-09
1.298270445e-09
1.15370404e-09
1.029988538e-09
1.15260713e-09
1.074151728e-09
1.082557061e-09
1.019014134e-09
1.09280531e-09
1.027832259e-09
1.172760583e-09
1.13698926e-09
1.196746047e-09
1.150545519e-09
1.586160593e-09
1.583643689e-09
1.635446017e-09
1.580018664e-09
2.303863356e-09
2.352203174e-09
2.383462108e-09
2.274341787e-09
3.052103617e-09
3.143940949e-09
3.156128331e-09
2.998373881e-09
3.840920828e-09
3.970124849e-09
3.977373345e-09
3.804169572e-09
5.099244092e-09
5.287388551e-09
5.309678896e-09
5.159214601e-09
7.64781854e-09
8.110293312e-09
8.161688084e-09
8.069053822e-09
1.326505216e-08
1.431347362e-08
1.441022941e-08
1.450150871e-08
2.406664341e-08
2.623296503e-08
2.635521915e-08
2.553614838e-08
3.842156306e-08
3.944481047e-08
3.661775137e-08
4.271533593e-08
4.256172607e-08
3.958113279e-08
3.853743512e-08
3.773253288e-08
3.080234416e-08
3.369867813e-08
3.369495905e-08
3.428226709e-08
3.413898684e-08
3.994744714e-08
3.881542523e-08
5.153043628e-08
6.732981947e-08
7.97508782e-08
8.681761647e-08
7.152498433e-08
4.75019311e-08
2.667736547e-08
1.350154138e-08
6.459947822e-09
3.074871481e-09
1.476113824e-09
7.181870653e-10
3.492384039e-10
1.616924378e-10
7.082530701e-11
2.579245904e-11
6.837660889e-12
1.169147361e-12
1.135661711e-13
7.924078575e-15
4.570767108e-15
6.785985382e-13
6.394477304e-13
6.376370806e-13
8.687313275e-13
2.347406261e-12
7.905926344e-12
2.184518572e-11
4.78226159e-11
9.076429387e-11
1.640683845e-10
2.997704139e-10
5.623755639e-10
1.059518804e-09
1.901231374e-09
3.152791762e-09
4.510175532e-09
5.73704591e-09
6.610596371e-09
7.22242815e-09
7.972764908e-09
9.150704836e-09
1.047587165e-08
1.531056454e-08
1.61252853e-08
1.642563955e-08
1.646459685e-08
1.409285437e-08
1.219100369e-08
1.165065321e-08
1.129074413e-08
1.156443071e-08
9.698435652e-09
9.666500256e-09
7.446977727e-09
7.765369823e-09
7.638406034e-09
5.64233159e-09
5.868531869e-09
5.853592007e-09
5.427307411e-09
3.728030392e-09
3.733890938e-09
3.707490497e-09
3.423160136e-09
1.920047065e-09
1.890932328e-09
1.875713435e-09
1.788620527e-09
1.120190229e-09
1.12225424e-09
1.100320371e-09
1.085908521e-09
8.909468642e-10
9.249269107e-10
9.142885799e-10
9.072678437e-10
9.245616333e-10
9.709516425e-10
9.520098884e-10
9.776748891e-10
1.418281958e-09
1.526241599e-09
1.490845391e-09
1.56355386e-09
2.592791107e-09
2.850199448e-09
2.793216135e-09
2.881095238e-09
3.807836192e-09
4.153862788e-09
4.01081717e-09
4.148337723e-09
4.399003018e-09
4.711831028e-09
4.402923589e-09
4.688277079e-09
4.632057923e-09
4.925596645e-09
4.407438563e-09
4.910807875e-09
4.936492083e-09
5.263768236e-09
4.422794465e-09
5.266126521e-09
5.321910044e-09
5.694556918e-09
4.283472128e-09
5.700519608e-09
5.381497351e-09
5.7271534e-09
4.316088465e-09
5.720668857e-09
5.334328721e-09
5.128972923e-09
4.332611614e-09
5.107496855e-09
4.733627366e-09
4.18870939e-09
3.723982513e-09
4.177334944e-09
3.93817224e-09
3.948459691e-09
3.681308491e-09
3.979902566e-09
3.789007802e-09
4.302040182e-09
4.11991896e-09
4.384658143e-09
4.272513116e-09
5.833432902e-09
5.750451591e-09
6.008138969e-09
5.885463773e-09
8.466561888e-09
8.539483468e-09
8.744298509e-09
8.449504057e-09
1.117108846e-08
1.136139195e-08
1.152043675e-08
1.108476355e-08
1.403009028e-08
1.431608923e-08
1.448005469e-08
1.403407536e-08
1.854142067e-08
1.898284239e-08
1.923048972e-08
1.892994145e-08
2.751999955e-08
2.888441838e-08
2.907267567e-08
2.912434146e-08
4.668587259e-08
4.982818797e-08
4.978691903e-08
5.098292992e-08
8.285847995e-08
8.923003472e-08
8.981489682e-08
8.863952495e-08
1.28992885e-07
1.3166175e-07
1.246363568e-07
1.427451935e-07
1.423518709e-07
1.330762332e-07
1.281907629e-07
1.27438903e-07
1.043566704e-07
1.138578949e-07
1.117145288e-07
1.158574861e-07
1.159145556e-07
1.359908498e-07
1.413731287e-07
1.918401833e-07
2.556829008e-07
3.081102532e-07
3.293971045e-07
2.687161741e-07
1.778429081e-07
1.007041114e-07
5.170988399e-08
2.493374358e-08
1.182052144e-08
5.586585148e-09
2.644976676e-09
1.231268883e-09
5.329990351e-10
2.055452786e-10
6.357606958e-11
1.459521466e-11
2.303040426e-12
2.163137892e-13
1.420275109e-14
7.824205977e-15
1.252910975e-12
1.176282766e-12
1.164639204e-12
1.610147133e-12
4.718118294e-12
1.794532187e-11
5.775642465e-11
1.447097866e-10
2.987557177e-10
5.64395759e-10
1.055815608e-09
1.998950225e-09
3.770450173e-09
6.73930669e-09
1.099971666e-08
1.551935779e-08
1.945106631e-08
2.214979362e-08
2.408234794e-08
2.664439909e-08
3.06704566e-08
3.514292425e-08
4.888597517e-08
5.226071721e-08
5.313360763e-08
5.283888622e-08
4.608052164e-08
3.997886742e-08
3.81577984e-08
3.638655657e-08
3.763294085e-08
3.143556896e-08
3.128867525e-08
2.437210754e-08
2.504119549e-08
2.474597096e-08
1.842577319e-08
1.892000412e-08
1.884161099e-08
1.761056732e-08
1.20179966e-08
1.187314116e-08
1.186316344e-08
1.102419552e-08
6.183609064e-09
6.014785091e-09
5.963889762e-09
5.735205599e-09
3.633205498e-09
3.605065196e-09
3.507540049e-09
3.499530425e-09
2.899023745e-09
2.982815673e-09
2.925091234e-09
2.935560718e-09
3.018322909e-09
3.141591931e-09
3.052186676e-09
3.180028928e-09
4.680727577e-09
5.004804423e-09
4.846955063e-09
5.15334541e-09
8.559702492e-09
9.354230431e-09
9.095717149e-09
9.485856197e-09
1.248889199e-08
1.352373184e-08
1.296356584e-08
1.353466956e-08
1.440288469e-08
1.530027108e-08
1.421938036e-08
1.524597298e-08
1.515778426e-08
1.598064096e-08
1.428554454e-08
1.59509941e-08
1.616080248e-08
1.709213904e-08
1.449975918e-08
1.711200908e-08
1.735148184e-08
1.840537209e-08
1.434596824e-08
1.842771053e-08
1.749670638e-08
1.845379116e-08
1.441617701e-08
1.842246299e-08
1.731226727e-08
1.642971057e-08
1.401228355e-08
1.634058479e-08
1.527404641e-08
1.349660885e-08
1.197593358e-08
1.344340088e-08
1.278976416e-08
1.279693583e-08
1.184871186e-08
1.288571933e-08
1.238652217e-08
1.403849759e-08
1.331584576e-08
1.429592429e-08
1.40765058e-08
1.906657785e-08
1.860392625e-08
1.961940302e-08
1.941891772e-08
2.751867255e-08
2.747441948e-08
2.837664103e-08
2.768717613e-08
3.59947384e-08
3.621127967e-08
3.70279976e-08
3.599645044e-08
4.490581608e-08
4.531782091e-08
4.620392526e-08
4.526535498e-08
5.868033784e-08
5.942818915e-08
6.063170169e-08
6.030098491e-08
8.53233239e-08
8.872299662e-08
8.930175955e-08
9.039811291e-08
1.409274436e-07
1.489327129e-07
1.479052496e-07
1.535348465e-07
2.449142222e-07
2.609937927e-07
2.630979601e-07
2.634904781e-07
3.76488103e-07
3.824421755e-07
3.675148722e-07
4.166916153e-07
4.158049701e-07
3.91260901e-07
3.741705637e-07
3.759201653e-07
3.10484256e-07
3.386875929e-07
3.29883243e-07
3.510256795e-07
3.527755745e-07
4.166378996e-07
4.553971978e-07
6.237713091e-07
8.176755563e-07
9.521754103e-07
9.329458624e-07
7.29419152e-07
4.689183904e-07
2.671345991e-07
1.425594561e-07
7.173044236e-08
3.49530999e-08
1.654039033e-08
7.608870763e-09
3.330555652e-09
1.312967084e-09
4.479741336e-10
1.241472029e-10
2.662936524e-11
4.080521419e-12
3.782325741e-13
2.30563692e-14
1.160323598e-14
2.185026248e-12
2.047322474e-12
2.023196978e-12
2.868182693e-12
8.989030514e-12
3.705921456e-11
1.336520293e-10
3.803280596e-10
8.629088616e-10
1.717834778e-09
3.298672307e-09
6.307500173e-09
1.191350416e-08
2.141509639e-08
3.405863958e-08
4.735441232e-08
5.843930997e-08
6.586917856e-08
7.161575619e-08
7.982147572e-08
9.249835258e-08
1.06336198e-07
1.430184222e-07
1.550609412e-07
1.5745644e-07
1.553036551e-07
1.374240845e-07
1.195778504e-07
1.139379227e-07
1.073256785e-07
1.11833008e-07
9.300998993e-08
9.246555905e-08
7.258490493e-08
7.364740842e-08
7.308368272e-08
5.466753868e-08
5.552880561e-08
5.521715785e-08
5.195820343e-08
3.515643054e-08
3.430852547e-08
3.447460587e-08
3.22126491e-08
1.804716434e-08
1.736888214e-08
1.721572471e-08
1.667911869e-08
1.069229186e-08
1.05325884e-08
1.018072013e-08
1.025266362e-08
8.572150801e-09
8.757371543e-09
8.528400013e-09
8.643740624e-09
8.976022231e-09
9.27624014e-09
8.940968336e-09
9.434032618e-09
1.409738776e-08
1.500010199e-08
1.442236145e-08
1.551091935e-08
2.579778772e-08
2.806239032e-08
2.711230601e-08
2.852468202e-08
3.730348476e-08
4.01377471e-08
3.825520483e-08
4.023774315e-08
4.289642618e-08
4.52572551e-08
4.190603426e-08
4.514970936e-08
4.509125397e-08
4.720325805e-08
4.2220828e-08
4.716154655e-08
4.808717139e-08
5.052421262e-08
4.328330924e-08
5.060952609e-08
5.135818518e-08
5.407459582e-08
4.342465438e-08
5.414173883e-08
5.17643102e-08
5.39765751e-08
4.347532853e-08
5.385145971e-08
5.091717807e-08
4.766016407e-08
4.106155357e-08
4.734758544e-08
4.459260841e-08
3.943436573e-08
3.500999359e-08
3.92448341e-08
3.762944707e-08
3.763569456e-08
3.469761981e-08
3.786916484e-08
3.670927338e-08
4.158278752e-08
3.91696008e-08
4.231692371e-08
4.203379245e-08
5.638097398e-08
5.459137678e-08
5.795757054e-08
5.784051527e-08
8.02822136e-08
7.950787153e-08
8.263605295e-08
8.128985634e-08
1.032758246e-07
1.029594752e-07
1.059475907e-07
1.039512341e-07
1.269987321e-07
1.269737511e-07
1.302260744e-07
1.288106058e-07
1.626539134e-07
1.632143009e-07
1.673525796e-07
1.678919787e-07
2.302997595e-07
2.37292362e-07
2.388110721e-07
2.439081488e-07
3.714403221e-07
3.889930729e-07
3.845155746e-07
4.035222565e-07
6.416094716e-07
6.778848961e-07
6.843160683e-07
6.940036512e-07
9.932203428e-07
1.00526415e-06
9.766918266e-07
1.104348534e-06
1.102675195e-06
1.049702401e-06
9.975184915e-07
1.012286367e-06
8.468932658e-07
9.263441074e-07
9.041634825e-07
9.8637085e-07
9.956167433e-07
1.165802773e-06
1.311690928e-06
1.732545347e-06
2.067729667e-06
2.176206013e-06
1.921518341e-06
1.412620113e-06
8.488149297e-07
4.829497177e-07
2.709527341e-07
1.435665627e-07
7.359858907e-08
3.588124907e-08
1.639502643e-08
6.865934863e-09
2.525501168e-09
8.020383465e-10
2.11322662e-10
4.417391174e-11
6.694312662e-12
6.144139536e-13
3.37343853e-14
1.452611603e-14
3.697771017e-12
3.460095855e-12
3.421949848e-12
5.016624869e-12
1.677638997e-11
7.346121678e-11
2.87742152e-10
9.0869758e-10
2.252047315e-09
4.728095579e-09
9.320953585e-09
1.801060328e-08
3.409196046e-08
6.076094531e-08
9.558624494e-08
1.310575701e-07
1.594064184e-07
1.785865029e-07
1.95182596e-07
2.206971565e-07
2.582324387e-07
2.982803864e-07
3.922746843e-07
4.30141177e-07
4.36365608e-07
4.260807114e-07
3.817277944e-07
3.329129085e-07
3.160846807e-07
2.949272817e-07
3.089995469e-07
2.554767242e-07
2.536909873e-07
1.999616603e-07
2.005937455e-07
1.998167448e-07
1.496491898e-07
1.505028313e-07
1.494405203e-07
1.414618848e-07
9.468717047e-08
9.135778926e-08
9.226331373e-08
8.664237061e-08
4.845906088e-08
4.619454574e-08
4.577188001e-08
4.465191232e-08
2.899719187e-08
2.840295053e-08
2.730439323e-08
2.771832454e-08
2.340043249e-08
2.376383004e-08
2.30044903e-08
2.351994621e-08
2.4708528e-08
2.538524222e-08
2.430297624e-08
2.593300097e-08
3.939337033e-08
4.175723221e-08
3.991129428e-08
4.333875879e-08
7.20933177e-08
7.812337987e-08
7.510997066e-08
7.954956907e-08
1.029798614e-07
1.101409502e-07
1.045504732e-07
1.105673973e-07
1.179125855e-07
1.236415357e-07
1.143009484e-07
1.234709094e-07
1.236623479e-07
1.286332022e-07
1.153628695e-07
1.286312521e-07
1.318166254e-07
1.376943099e-07
1.193037425e-07
1.379793626e-07
1.398058212e-07
1.461800285e-07
1.206844293e-07
1.463441777e-07
1.407656091e-07
1.449292189e-07
1.201800673e-07
1.444832633e-07
1.373231701e-07
1.265052873e-07
1.103282866e-07
1.255274507e-07
1.19103477e-07
1.055588731e-07
9.409052351e-08
1.04983197e-07
1.014006026e-07
1.01335915e-07
9.334705028e-08
1.018999644e-07
9.958198584e-08
1.126044437e-07
1.05704838e-07
1.145096967e-07
1.146454671e-07
1.51354835e-07
1.459367155e-07
1.553715657e-07
1.56133378e-07
2.10128249e-07
2.070569154e-07
2.157634257e-07
2.138095752e-07
2.629719615e-07
2.604828842e-07
2.688311591e-07
2.660719181e-07
3.158905246e-07
3.13648009e-07
3.225794271e-07
3.218845097e-07
3.939498025e-07
3.924465855e-07
4.033720523e-07
4.078891233e-07
5.472907671e-07
5.592023123e-07
5.627009963e-07
5.790959492e-07
8.72519365e-07
9.065000596e-07
8.926300669e-07
9.468986411e-07
1.549638089e-06
1.628516536e-06
1.646613384e-06
1.688136387e-06
2.432273825e-06
2.455174887e-06
2.407446582e-06
2.716231259e-06
2.714456681e-06
2.62564345e-06
2.487171531e-06
2.546012002e-06
2.173247352e-06
2.377479932e-06
2.322941922e-06
2.550281919e-06
2.580946268e-06
2.909219335e-06
3.259965698e-06
3.844618309e-06
4.067294017e-06
3.897636979e-06
3.177452609e-06
2.257380289e-06
1.293875533e-06
7.078306007e-07
4.024190699e-07
2.234148108e-07
1.180985442e-07
5.92448957e-08
2.740361125e-08
1.137953056e-08
4.092961069e-09
1.270608374e-09
3.299148325e-10
6.848417187e-11
1.034295551e-11
9.425367166e-13
4.552981632e-14
1.495749026e-14
6.179011626e-12
5.775717287e-12
5.726744741e-12
8.744701302e-12
3.124303799e-11
1.439036431e-10
5.999299298e-10
2.05056018e-09
5.459051301e-09
1.200768767e-08
2.422974641e-08
4.735587449e-08
9.003324884e-08
1.595525025e-07
2.48557351e-07
3.365526472e-07
4.048528082e-07
4.528734538e-07
5.01336391e-07
5.779577928e-07
6.832809122e-07
7.926852366e-07
1.023904932e-06
1.128251946e-06
1.143098204e-06
1.103871338e-06
1.000075542e-06
8.755800569e-07
8.250276083e-07
7.636898603e-07
8.02951986e-07
6.583784423e-07
6.52974822e-07
5.147721746e-07
5.107608443e-07
5.10494467e-07
3.814341242e-07
3.798576808e-07
3.766090665e-07
3.584706274e-07
2.368451037e-07
2.261039163e-07
2.293069563e-07
2.163797908e-07
1.208587045e-07
1.142126075e-07
1.131305345e-07
1.110855089e-07
7.318377899e-08
7.136583869e-08
6.831284059e-08
6.98163187e-08
5.960901632e-08
6.022787426e-08
5.801779785e-08
5.977304148e-08
6.36739382e-08
6.509732809e-08
6.197722618e-08
6.680090251e-08