/*--------------------------------*- C++ -*----------------------------------*\
| =========                 |                                                 |
| \\      /  F ield         | OpenFOAM: The Open Source CFD Toolbox           |
|  \\    /   O peration     | Version:  2206                                  |
|   \\  /    A nd           | Website:  www.openfoam.com                      |
|    \\/     M anipulation  |                                                 |
\*---------------------------------------------------------------------------*/
FoamFile
{
    version     2.0;
    format      ascii;
    arch        "LSB;label=32;scalar=64";
    class       volScalarField;
    location    "0";
    object      nutMean;
}
// * * * * * * * * * * * * * * * * * * * * * * * * * * * * * * * * * * * * * //

dimensions      [0 2 -1 0 0 0 0];

internalField   nonuniform List<scalar> 
31329
(
3.430403725e-13
3.751334599e-13
6.016781669e-14
1.478603973e-13
3.817279714e-13
7.201177673e-13
1.110248099e-12
1.445823727e-12
1.611960927e-12
1.535676365e-12
1.269356013e-12
9.753801897e-13
8.167669946e-13
8.292117124e-13
9.524575889e-13
1.055713693e-12
1.072315135e-12
9.783318552e-13
8.665816137e-13
8.442884894e-13
9.363294025e-13
1.13309097e-12
1.372493771e-12
1.577861255e-12
1.616009623e-12
1.741552274e-12
1.721771831e-12
1.725575649e-12
1.612501048e-12
1.576973995e-12
1.562083898e-12
1.430644047e-12
1.420759557e-12
1.32452155e-12
1.297178598e-12
1.2945511e-12
1.223081823e-12
1.203448721e-12
1.199628547e-12
1.195890039e-12
1.139001558e-12
1.129028244e-12
1.129266106e-12
1.126079206e-12
1.084452474e-12
1.076871589e-12
1.07583697e-12
1.075572337e-12
1.047076003e-12
1.042340362e-12
1.041155785e-12
1.037917762e-12
1.001855197e-12
9.944123201e-13
9.922966656e-13
9.884714771e-13
9.466334972e-13
9.371959918e-13
9.334138891e-13
9.325513446e-13
9.018733432e-13
8.955687377e-13
8.930760832e-13
8.920650103e-13
8.691891388e-13
8.65303722e-13
8.643252738e-13
8.616323123e-13
8.379142078e-13
8.341520168e-13
8.330681958e-13
8.302897331e-13
8.072060698e-13
8.044437239e-13
8.032868049e-13
8.007544232e-13
7.7986851e-13
7.789631556e-13
7.773612859e-13
7.753604875e-13
7.537794939e-13
7.547906126e-13
7.497998276e-13
7.505827464e-13
7.214652884e-13
7.232900325e-13
7.026737315e-13
7.179410881e-13
6.758057045e-13
6.787992372e-13
6.507181705e-13
6.714591243e-13
6.470809989e-13
6.047128619e-13
5.927133185e-13
5.93871931e-13
5.577504122e-13
4.828479475e-13
4.789675786e-13
4.681722604e-13
4.220178628e-13
3.242827722e-13
3.188727777e-13
3.108337067e-13
2.728844614e-13
2.175928737e-13
2.140370655e-13
2.162470465e-13
2.047731223e-13
2.285782515e-13
2.500171118e-13
2.395244144e-13
2.242133846e-13
2.272821769e-13
2.465015159e-13
2.320002201e-13
2.087341565e-13
1.736004708e-13
1.705088558e-13
1.715383899e-13
1.697624211e-13
2.047106692e-13
2.118336153e-13
2.138791252e-13
2.203924288e-13
3.36766983e-13
3.498829763e-13
3.574305742e-13
3.794876625e-13
6.408250234e-13
6.734234472e-13
6.840045642e-13
7.273148898e-13
1.263860543e-12
1.341004597e-12
1.3509441e-12
1.460188684e-12
2.54196086e-12
2.680887221e-12
2.755798438e-12
3.105368547e-12
5.150175892e-12
5.264093915e-12
5.907832728e-12
9.331885885e-12
9.674120632e-12
1.521521286e-11
1.574583811e-11
1.785927635e-11
2.524501835e-11
2.887474017e-11
4.037392908e-11
5.99918006e-11
6.453223561e-11
8.848426384e-11
1.144722983e-10
1.336026094e-10
1.339350271e-10
1.091246293e-10
6.965151975e-11
3.448736181e-11
1.391070702e-11
5.130851577e-12
1.96296517e-12
8.390447664e-13
4.039841926e-13
2.122699893e-13
1.19141503e-13
7.021915787e-14
4.375502435e-14
2.757605725e-14
1.682643606e-14
9.441266714e-15
4.485487176e-15
1.557711192e-15
3.237747637e-16
3.779897991e-17
4.249302737e-13
3.481872391e-13
1.028738851e-13
1.604668832e-13
3.877866503e-13
7.30550741e-13
1.143982731e-12
1.539439178e-12
1.818064823e-12
1.895623171e-12
1.76775071e-12
1.593992269e-12
1.489709394e-12
1.463628594e-12
1.879995371e-12
1.762328963e-12
1.557676385e-12
1.293849109e-12
1.062627441e-12
9.774257967e-13
1.054630306e-12
1.258518636e-12
1.923682136e-12
2.086410475e-12
2.141427282e-12
2.325424916e-12
2.128971479e-12
2.091178849e-12
1.977053896e-12
2.056542442e-12
1.987162841e-12
1.856376928e-12
1.856710167e-12
1.631226008e-12
1.708656258e-12
1.678951978e-12
1.510204514e-12
1.578495947e-12
1.582193947e-12
1.509271719e-12
1.46242751e-12
1.515328995e-12
1.489706364e-12
1.427018178e-12
1.401569547e-12
1.453800586e-12
1.452140068e-12
1.394665608e-12
1.349500751e-12
1.405540074e-12
1.430240896e-12
1.374385028e-12
1.298593717e-12
1.357424405e-12
1.383929022e-12
1.329121038e-12
1.249898114e-12
1.308459456e-12
1.334233514e-12
1.283740922e-12
1.22442001e-12
1.288731083e-12
1.315322242e-12
1.266935883e-12
1.223317221e-12
1.295393286e-12
1.321379205e-12
1.275317614e-12
1.235141435e-12
1.315632069e-12
1.335420005e-12
1.297335236e-12
1.263742184e-12
1.356448415e-12
1.359209013e-12
1.340443477e-12
1.316671122e-12
1.426408906e-12
1.384594356e-12
1.413231827e-12
1.400638219e-12
1.533552058e-12
1.370253203e-12
1.523757817e-12
1.517132582e-12
1.680377842e-12
1.143703709e-12
1.675325617e-12
1.50667574e-12
1.876903759e-12
1.212280698e-12
1.878655293e-12
1.66670649e-12
2.109732451e-12
1.813339979e-12
2.121181192e-12
1.852370676e-12
2.345610839e-12
2.259738612e-12
2.37147474e-12
2.038025322e-12
2.499616832e-12
2.55972422e-12
2.546483362e-12
2.167677955e-12
2.453397646e-12
2.609828934e-12
2.522933725e-12
2.147475237e-12
2.038489011e-12
2.222128616e-12
2.111626452e-12
1.8006544e-12
1.335440585e-12
1.463892182e-12
1.384329287e-12
1.188228328e-12
1.020265298e-12
1.117137819e-12
1.062496909e-12
9.286829411e-13
1.220442206e-12
1.356883904e-12
1.290636885e-12
1.137579774e-12
1.764484205e-12
1.965195773e-12
1.883833123e-12
1.696442244e-12
2.805273066e-12
3.15472194e-12
3.170352611e-12
2.893025433e-12
4.704957684e-12
5.339544488e-12
5.586554226e-12
5.132601596e-12
8.165137807e-12
9.314530764e-12
9.292156051e-12
8.387390387e-12
1.48306191e-11
1.552364097e-11
1.399913074e-11
2.359253185e-11
2.368714143e-11
3.272925554e-11
3.487839414e-11
3.325184019e-11
4.641304328e-11
4.960766235e-11
7.824490538e-11
1.087857997e-10
1.102427648e-10
1.611568789e-10
1.58086375e-10
1.850290752e-10
1.879632599e-10
1.590638794e-10
1.052638143e-10
5.452268679e-11
2.328469417e-11
9.072370176e-12
3.571252414e-12
1.508212819e-12
6.910573802e-13
3.407102164e-13
1.788271335e-13
8.577637058e-14
5.155534907e-14
3.136178893e-14
1.85466257e-14
1.015172021e-14
4.770710311e-15
1.695084603e-15
4.506496211e-16
3.191897806e-16
1.220231822e-13
1.513245622e-13
1.826349953e-13
4.160770336e-13
1.028868151e-12
2.127236959e-12
3.886852497e-12
6.510578053e-12
1.013008902e-11
1.44456348e-11
1.846112872e-11
2.14416971e-11
2.241228338e-11
2.10974977e-11
2.144544458e-11
1.644365745e-11
1.159319409e-11
7.787768724e-12
5.166188677e-12
3.878923481e-12
3.680950834e-12
4.039091501e-12
8.626676173e-12
8.565916356e-12
8.868317841e-12
9.473242647e-12
7.822556883e-12
7.101347074e-12
7.203321187e-12
7.986606143e-12
7.578052847e-12
7.320595793e-12
7.373450541e-12
5.975781313e-12
6.85546822e-12
6.599124762e-12
5.557168135e-12
6.321456037e-12
6.375061432e-12
5.704792925e-12
5.722729769e-12
6.257484136e-12
6.038427464e-12
5.458327222e-12
5.577043222e-12
6.118126171e-12
6.10852461e-12
5.563579555e-12
5.381228541e-12
5.948951908e-12
6.163190659e-12
5.676538363e-12
5.288146319e-12
5.903804748e-12
6.134740604e-12
5.66714122e-12
5.316348238e-12
5.948466264e-12
6.173702784e-12
5.738874697e-12
5.489481527e-12
6.164117374e-12
6.376236457e-12
5.977745296e-12
5.833988611e-12
6.57568196e-12
6.750610883e-12
6.408989895e-12
6.338601562e-12
7.169256347e-12
7.247134785e-12
7.023405112e-12
7.045395492e-12
7.998204466e-12
7.849188151e-12
7.877126215e-12
8.020341537e-12
9.139234034e-12
8.459321534e-12
9.050404982e-12
9.374372889e-12
1.072375147e-11
8.737971151e-12
1.067879539e-11
1.121966395e-11
1.288254372e-11
7.288743867e-12
1.290089437e-11
1.371773556e-11
1.581061907e-11
8.888208269e-12
1.592089837e-11
1.404640007e-11
1.958022574e-11
1.59606564e-11
1.98217321e-11
1.745822578e-11
2.402107169e-11
2.246600272e-11
2.443705268e-11
2.144428496e-11
2.792819412e-11
2.797172978e-11
2.853256595e-11
2.489718211e-11
2.857749972e-11
2.974337653e-11
2.928399549e-11
2.536502344e-11
2.318933112e-11
2.460290085e-11
2.37807095e-11
2.050316604e-11
1.436222886e-11
1.525968797e-11
1.471603039e-11
1.284622902e-11
1.105646697e-11
1.189564552e-11
1.146864463e-11
1.017806171e-11
1.314464144e-11
1.439766708e-11
1.384096608e-11
1.234512112e-11
1.849617249e-11
2.036974532e-11
1.966155264e-11
1.779005679e-11
2.822864113e-11
3.161169984e-11
3.174831854e-11
2.896770813e-11
4.523023647e-11
5.135760719e-11
5.356030844e-11
4.899709616e-11
7.419885549e-11
8.513897427e-11
8.468152363e-11
7.433606659e-11
1.264525814e-10
1.326130725e-10
1.14878668e-10
1.876037829e-10
1.870513046e-10
2.388211361e-10
2.513452765e-10
2.308544219e-10
2.940240773e-10
3.195931948e-10
5.088370173e-10
6.773323217e-10
6.700536411e-10
9.884761535e-10
7.7644099e-10
9.363793057e-10
1.000635782e-09
9.254345639e-10
6.661419376e-10
3.785079734e-10
1.788530821e-10
7.643683992e-11
3.195778733e-11
1.377535366e-11
6.20222618e-12
2.936549479e-12
1.455347827e-12
6.333788901e-13
3.390103837e-13
1.794699566e-13
9.084535443e-14
4.185433178e-14
1.601131484e-14
4.42343722e-15
1.715959511e-15
1.562494749e-15
1.946445923e-13
2.127921224e-13
4.699177977e-13
2.121657396e-12
6.846072232e-12
1.602615686e-11
3.199057585e-11
5.801951859e-11
9.671548821e-11
1.458695442e-10
1.952587114e-10
2.329908526e-10
2.456394803e-10
2.304765935e-10
2.097984225e-10
1.555764647e-10
1.051202625e-10
6.726531648e-11
4.221023873e-11
2.97038885e-11
2.670736368e-11
2.801571561e-11
5.409425953e-11
5.390176029e-11
5.555436301e-11
5.780529396e-11
4.873547454e-11
4.277845881e-11
4.47338325e-11
4.806387807e-11
4.677796002e-11
4.487380334e-11
4.514992128e-11
3.693601944e-11
4.180634271e-11
4.04447982e-11
3.438438747e-11
3.870406128e-11
3.899397338e-11
3.52208226e-11
3.535273959e-11
3.820433585e-11
3.715334557e-11
3.386542031e-11
3.466860078e-11
3.772832576e-11
3.768053383e-11
3.461719593e-11
3.372051556e-11
3.696448052e-11
3.797257726e-11
3.543856088e-11
3.344582927e-11
3.697565519e-11
3.802911469e-11
3.566485337e-11
3.401654685e-11
3.765817362e-11
3.861246643e-11
3.651142215e-11
3.556835471e-11
3.946674055e-11
4.024004441e-11
3.846653953e-11
3.830850405e-11
4.261319159e-11
4.30139947e-11
4.174375504e-11
4.223513312e-11
4.707843231e-11
4.66828267e-11
4.635045192e-11
4.765135179e-11
5.322928079e-11
5.117210257e-11
5.267132493e-11
5.503773417e-11
6.161155549e-11
5.599910497e-11
6.127844065e-11
6.522254248e-11
7.318585015e-11
5.951909142e-11
7.316001851e-11
7.909769507e-11
8.8954162e-11
5.49251339e-11
8.936749409e-11
9.794982367e-11
1.104191601e-10
6.828590347e-11
1.114575621e-10
1.015004097e-10
1.384312378e-10
1.13323501e-10
1.40331173e-10
1.277071752e-10
1.720230973e-10
1.583820764e-10
1.749816033e-10
1.585759416e-10
2.022475114e-10
1.982542731e-10
2.061363509e-10
1.851918677e-10
2.07817942e-10
2.111956078e-10
2.117811945e-10
1.879795168e-10
1.687079834e-10
1.742162947e-10
1.713438576e-10
1.508360934e-10
1.04507298e-10
1.073072044e-10
1.0560524e-10
9.465011836e-11
8.053760057e-11
8.403177766e-11
8.265950595e-11
7.574836136e-11
9.523402019e-11
1.016818097e-10
9.95237585e-11
9.176545008e-11
1.33427525e-10
1.434708545e-10
1.407125421e-10
1.313510491e-10
2.032169621e-10
2.229128373e-10
2.240042503e-10
2.104466253e-10
3.246983531e-10
3.612898018e-10
3.720218941e-10
3.513261359e-10
5.267917613e-10
5.907812721e-10
5.8972907e-10
5.385066815e-10
8.735901086e-10
9.073927812e-10
8.190821202e-10
1.275446193e-09
1.27589938e-09
1.628753861e-09
1.662368945e-09
1.60748647e-09
1.954176003e-09
2.195758228e-09
3.278847282e-09
4.412823216e-09
4.409748478e-09
6.307954565e-09
5.429908329e-09
6.722731432e-09
7.434185483e-09
7.134839537e-09
5.314142757e-09
3.119173355e-09
1.518332047e-09
6.651220122e-10
2.834304585e-10
1.238946497e-10
5.634838229e-11
2.687909203e-11
1.338712951e-11
6.31028252e-12
3.306600589e-12
1.69132817e-12
8.063729862e-13
3.280339896e-13
9.430005107e-14
1.615452955e-14
5.006054502e-15
4.702457865e-15
5.702639442e-13
5.771056136e-13
1.262405475e-12
7.452588534e-12
3.235468636e-11
8.974805564e-11
1.930934058e-10
3.635684284e-10
6.209892856e-10
9.544888315e-10
1.299360679e-09
1.565533703e-09
1.655650387e-09
1.552423918e-09
1.351973527e-09
9.911295208e-10
6.610152483e-10
4.173408916e-10
2.585407847e-10
1.794435376e-10
1.593444499e-10
1.649341823e-10
2.778040098e-10
2.819038173e-10
2.890153788e-10
2.94927156e-10
2.579810591e-10
2.250462225e-10
2.365373761e-10
2.447336992e-10
2.440233902e-10
2.312698794e-10
2.321784401e-10
1.942816567e-10
2.137587514e-10
2.085114143e-10
1.808113021e-10
1.986482797e-10
1.997411847e-10
1.839587865e-10
1.835442144e-10
1.944229849e-10
1.910472135e-10
1.771626241e-10
1.803503138e-10
1.930641772e-10
1.928854607e-10
1.801367197e-10
1.764746271e-10
1.901885948e-10
1.932868061e-10
1.838004044e-10
1.756906214e-10
1.906363448e-10
1.936576223e-10
1.851965455e-10
1.790521645e-10
1.9452561e-10
1.967676768e-10
1.898502929e-10
1.875775877e-10
2.042492673e-10
2.052193674e-10
2.002833139e-10
2.024074644e-10
2.20944501e-10
2.195942637e-10
2.176251941e-10
2.236181239e-10
2.44578433e-10
2.387552026e-10
2.419709465e-10
2.528079278e-10
2.770618701e-10
2.626424346e-10
2.753213913e-10
2.925737784e-10
3.21286931e-10
2.89749581e-10
3.207033942e-10
3.473346666e-10
3.822959008e-10
3.145878175e-10
3.832878415e-10
4.219611526e-10
4.654227312e-10
3.131191038e-10
4.686456265e-10
4.372627706e-10
5.788345084e-10
3.902595709e-10
5.851812706e-10
5.465917269e-10
7.27900663e-10
6.029376064e-10
7.384158347e-10
6.892071118e-10
9.082187592e-10
8.29068081e-10
9.234626525e-10
8.574886973e-10
1.072071245e-09
1.034723556e-09
1.090460019e-09
1.001277678e-09
1.10324274e-09
1.100631498e-09
1.119443556e-09
1.012284088e-09
8.968410758e-10
9.066941217e-10
9.04181722e-10
8.088469648e-10
5.571653254e-10
5.569709391e-10
5.570920986e-10
5.094382776e-10
4.295885752e-10
4.373493264e-10
4.372839661e-10
4.106170384e-10
5.058710954e-10
5.290698579e-10
5.255497515e-10
4.970916738e-10
7.06722799e-10
7.452236659e-10
7.406678849e-10
7.084381157e-10
1.075553463e-09
1.160185348e-09
1.166434055e-09
1.122006758e-09
1.715347956e-09
1.87721514e-09
1.91210972e-09
1.854641797e-09
2.757778364e-09
3.032938525e-09
3.037323998e-09
2.867880487e-09
4.468713371e-09
4.602058814e-09
4.310013235e-09
6.43457792e-09
6.458254064e-09
8.257639446e-09
8.240357638e-09
8.320971656e-09
9.866205031e-09
1.127415095e-08
1.59289624e-08
2.177623682e-08
2.200486728e-08
3.080576758e-08
2.954188702e-08
3.73461837e-08
4.246141743e-08
4.161484683e-08
3.156870291e-08
1.884405683e-08
9.287609283e-09
4.090787099e-09
1.746996128e-09
7.644746635e-10
3.48222101e-10
1.664280671e-10
8.299336698e-11
4.247659475e-11
2.089759008e-11
1.03095557e-11
4.505379479e-12
1.514571167e-12
3.224204306e-13
4.189083457e-14
1.107812181e-14
1.043400982e-14
1.376441773e-12
1.360801294e-12
2.886722754e-12
1.873817421e-11
1.000330838e-10
3.402489135e-10
8.249951191e-10
1.647468608e-09
2.906894722e-09
4.573192646e-09
6.341923941e-09
7.729025784e-09
8.213626051e-09
7.702136069e-09
6.553937887e-09
4.76541754e-09
3.151083964e-09
1.975715289e-09
1.21733349e-09
8.411217219e-10
7.445884173e-10
7.666398742e-10
1.169544622e-09
1.206283793e-09
1.231790241e-09
1.239604087e-09
1.116975756e-09
9.749881457e-10
1.023659112e-09
1.029516829e-09
1.04510886e-09
9.810652915e-10
9.831454476e-10
8.374588783e-10
9.007134511e-10
8.847049653e-10
7.789454583e-10
8.394833829e-10
8.427068184e-10
7.882772738e-10
7.823653817e-10
8.151548233e-10
8.080905472e-10
7.595573561e-10
7.693862829e-10
8.127786401e-10
8.122533077e-10
7.685835549e-10
7.559547671e-10
8.038793063e-10
8.095597331e-10
7.817757029e-10
7.542076344e-10
8.065250617e-10
8.108325236e-10
7.878755215e-10
7.69036382e-10
8.233907096e-10
8.235200664e-10
8.076960091e-10
8.059570004e-10
8.649559805e-10
8.586699489e-10
8.520932286e-10
8.699482358e-10
9.360525357e-10
9.188592289e-10
9.258079049e-10
9.614547304e-10
1.036587451e-09
9.99786798e-10
1.029264703e-09
1.087274088e-09
1.174639952e-09
1.102457001e-09
1.170915717e-09
1.258680316e-09
1.362594397e-09
1.223951606e-09
1.36370255e-09
1.494586383e-09
1.621774229e-09
1.350748602e-09
1.629438316e-09
1.816146471e-09
1.974933916e-09
1.41471607e-09
1.991819363e-09
1.892170434e-09
2.457593201e-09
1.764108723e-09
2.487244636e-09
2.365693231e-09
3.095347712e-09
2.593700582e-09
3.141606311e-09
2.98567086e-09
3.872073396e-09
3.517282312e-09
3.935847287e-09
3.718672578e-09
4.583724585e-09
4.374531391e-09
4.655400468e-09
4.34174983e-09
4.723390781e-09
4.645869979e-09
4.777682237e-09
4.378225577e-09
3.843048428e-09
3.821800346e-09
3.853761728e-09
3.487396745e-09
2.390469546e-09
2.340864981e-09
2.371774225e-09
2.200549099e-09
1.843559875e-09
1.841755746e-09
1.865414534e-09
1.78234182e-09
2.162466983e-09
2.225409988e-09
2.236789356e-09
2.15450508e-09
3.008076511e-09
3.123743282e-09
3.137739786e-09
3.054230948e-09
4.558854791e-09
4.855257684e-09
4.883009546e-09
4.779790856e-09
7.222051516e-09
7.803614264e-09
7.87885093e-09
7.800668436e-09
1.145079511e-08
1.239969097e-08
1.244844494e-08
1.205121593e-08
1.807837522e-08
1.848594021e-08
1.781110295e-08
2.557060857e-08
2.572916181e-08
3.282085186e-08
3.227760116e-08
3.357659035e-08
3.933177507e-08
4.517921398e-08
6.146211916e-08
8.565997695e-08
8.733691506e-08
1.212720238e-07
1.267726217e-07
1.634917414e-07
1.90147346e-07
1.874347687e-07
1.434062368e-07
8.68592965e-08
4.349521618e-08
1.929722629e-08
8.237580951e-09
3.585598793e-09
1.624388286e-09
7.724779033e-10
3.825741947e-10
1.930269514e-10
9.336324118e-11
4.259107156e-11
1.601400703e-11
4.348794785e-12
7.676471416e-13
8.859574386e-14
2.055735708e-14
1.912428749e-14
2.809524031e-12
2.750453645e-12
5.753146907e-12
3.881668746e-11
2.315111146e-10
9.345307598e-10
2.634906071e-09
5.781587533e-09
1.076726011e-08
1.756085143e-08
2.499623944e-08
3.095918498e-08
3.31695978e-08
3.11664868e-08
2.614523859e-08
1.889145981e-08
1.239046132e-08
7.722517342e-09
4.741293761e-09
3.269291098e-09
2.895404915e-09
2.975286112e-09
4.229812258e-09
4.424597214e-09
4.505036439e-09
4.488764578e-09
4.13974429e-09
3.623210535e-09
3.793628868e-09
3.736294339e-09
3.843944762e-09
3.5818502e-09
3.584393144e-09
3.093591748e-09
3.269446619e-09
3.229816554e-09
2.874958581e-09
3.053752954e-09
3.061346611e-09
2.897840398e-09
2.863599381e-09
2.943921473e-09
2.940440632e-09
2.791894564e-09
2.816815255e-09
2.945321457e-09
2.944107291e-09
2.814081027e-09
2.775711613e-09
2.92226886e-09
2.920047524e-09
2.855482292e-09
2.773267988e-09
2.933620437e-09
2.923383684e-09
2.877829638e-09
2.828195649e-09
2.995389281e-09
2.967446958e-09
2.949565744e-09
2.964119011e-09
3.147055404e-09
3.093021666e-09
3.111050001e-09
3.199443107e-09
3.406059104e-09
3.309783597e-09
3.379222991e-09
3.53584525e-09
3.771894036e-09
3.603555331e-09
3.755403835e-09
3.998089844e-09
4.273902888e-09
3.981876033e-09
4.270270771e-09
4.627919141e-09
4.957501099e-09
4.444061226e-09
4.971213788e-09
5.494404321e-09
5.899854308e-09
4.967120133e-09
5.9370198e-09
6.675699772e-09
7.183947547e-09
5.388678559e-09
7.253946618e-09
8.289373354e-09
8.941903187e-09
6.72015258e-09
9.057020705e-09
8.728597583e-09
1.127582702e-08
9.545798903e-09
1.144856192e-08
1.102451531e-08
1.413714811e-08
1.280540195e-08
1.436695636e-08
1.374771948e-08
1.678147884e-08
1.58815701e-08
1.702537565e-08
1.60601974e-08
1.732006965e-08
1.684663154e-08
1.747826947e-08
1.617312677e-08
1.409859029e-08
1.383679851e-08
1.408113249e-08
1.28495333e-08
8.760396774e-09
8.438470926e-09
8.641194926e-09
8.103777282e-09
6.748616957e-09
6.641486902e-09
6.798048008e-09
6.578207576e-09
7.872373798e-09
7.99601091e-09
8.114907675e-09
7.921080151e-09
1.086175057e-08
1.113900451e-08
1.128644014e-08
1.112894782e-08
1.628864252e-08
1.71696825e-08
1.72709212e-08
1.713235282e-08
2.54278712e-08
2.718754019e-08
2.725082704e-08
2.741620264e-08
3.946287939e-08
4.217316325e-08
4.241808381e-08
4.185519397e-08
6.044883728e-08
6.143760733e-08
6.051532448e-08
8.392732028e-08
8.459862123e-08
1.078976595e-07
1.051913173e-07
1.115568529e-07
1.306214361e-07
1.501955487e-07
2.009104095e-07
2.868553709e-07
2.946088808e-07
4.076518621e-07
4.539505747e-07
5.878527204e-07
6.780394416e-07
6.476181076e-07
4.888329873e-07
2.992497796e-07
1.552917518e-07
7.141054195e-08
3.118383124e-08
1.362989447e-08
6.143464807e-09
2.891220396e-09
1.405984181e-09
6.847557672e-10
3.118084813e-10
1.257027788e-10
4.010003758e-11
9.402373161e-12
1.524555435e-12
1.656899603e-13
3.368817302e-14
3.070420467e-14
5.036985482e-12
4.911637767e-12
1.024672124e-11
7.049640153e-11
4.440884995e-10
2.009596564e-09
6.549175896e-09
1.621111292e-08
3.270424242e-08
5.612933741e-08
8.249258419e-08
1.038918866e-07
1.122460777e-07
1.060831455e-07
8.862587786e-08
6.439776974e-08
4.208004656e-08
2.608231148e-08
1.602392879e-08
1.105171021e-08
9.811285037e-09
1.008521239e-08
1.36248916e-08
1.443632047e-08
1.466798828e-08
1.451254266e-08
1.363617321e-08
1.197585881e-08
1.249616689e-08
1.211429861e-08
1.259071188e-08
1.165864933e-08
1.165347032e-08
1.01556913e-08
1.058234576e-08
1.050633892e-08
9.425386207e-09
9.897952592e-09
9.91106692e-09
9.470924108e-09
9.32288417e-09
9.476418783e-09
9.528620304e-09
9.118300279e-09
9.169414806e-09
9.508622052e-09
9.50668108e-09
9.160813226e-09
9.055312796e-09
9.459631111e-09
9.387211495e-09
9.278208366e-09
9.056359518e-09
9.500001881e-09
9.39393069e-09
9.350136783e-09
9.235117771e-09
9.699344339e-09
9.529865362e-09
9.579753542e-09
9.677830743e-09
1.019015005e-08
9.930134901e-09
1.010108673e-08
1.044418462e-08
1.102762106e-08
1.062637461e-08
1.09672785e-08
1.153895574e-08
1.220882814e-08
1.157637823e-08
1.218118936e-08
1.304248134e-08
1.382885281e-08
1.281546372e-08
1.384217124e-08
1.509170845e-08
1.603563934e-08
1.436729582e-08
1.610437508e-08
1.791003094e-08
1.907689128e-08
1.622176331e-08
1.922033129e-08
2.175321467e-08
2.32215561e-08
1.805164062e-08
2.346926917e-08
2.281392743e-08
2.890685005e-08
2.25112294e-08
2.92972375e-08
2.852130342e-08
3.649012011e-08
3.118814049e-08
3.706033696e-08
3.605204663e-08
4.58470729e-08
4.148079419e-08
4.658598729e-08
4.502036834e-08
5.45609379e-08
5.132106457e-08
5.530800604e-08
5.263916353e-08
5.639223324e-08
5.437081097e-08
5.680202694e-08
5.29610721e-08
4.592130582e-08
4.458475587e-08
4.571583875e-08
4.19855611e-08
2.844298598e-08
2.702393756e-08
2.792032639e-08
2.640410335e-08
2.180423827e-08
2.119123388e-08
2.188072307e-08
2.138242357e-08
2.518032416e-08
2.529371883e-08
2.587493324e-08
2.551825761e-08
3.422794745e-08
3.472873689e-08
3.54370862e-08
3.52939453e-08
5.03377848e-08
5.257716545e-08
5.288837721e-08
5.301870081e-08
7.673228197e-08
8.125808306e-08
8.097713315e-08
8.247682096e-08
1.158869831e-07
1.223906045e-07
1.23265355e-07
1.234271471e-07
1.725272616e-07
1.744567811e-07
1.747741275e-07
2.371554258e-07
2.393689511e-07
3.083321984e-07
2.988655595e-07
3.213882224e-07
3.802611167e-07
4.393856046e-07
5.873929529e-07
8.540884421e-07
8.824252241e-07
1.195850352e-06
1.378657021e-06
1.703783748e-06
1.833158733e-06
1.618659895e-06
1.160963526e-06
7.04342279e-07
3.879987695e-07
1.932230374e-07
9.085311203e-08
4.145949473e-08
1.897401199e-08
8.868999836e-09
4.188435326e-09
1.922277078e-09
7.964653582e-10
2.820936965e-10
7.990667602e-11
1.738834505e-11
2.719513427e-12
2.841243719e-13
5.030049724e-14
4.456667909e-14
8.122028747e-12
7.909461534e-12
1.650280518e-11
1.145190984e-10
7.396333843e-10
3.576353733e-09
1.304681756e-08
3.649713038e-08
8.117127102e-08
1.476844124e-07
2.225939072e-07
2.784763845e-07
2.916672447e-07
2.736898578e-07
2.365611213e-07
1.824204247e-07
1.215374476e-07
7.554386594e-08
4.782225803e-08
3.346021289e-08
2.987034198e-08
3.07954984e-08
4.011857819e-08
4.302449566e-08
4.365012458e-08
4.297641037e-08
4.099984739e-08
3.614077498e-08
3.755513828e-08
3.596545337e-08
3.76712969e-08
3.466431054e-08
3.461376162e-08
3.037445756e-08
3.127182531e-08
3.118749092e-08
2.813115891e-08
2.926226584e-08
2.927013311e-08
2.819345511e-08
2.764899148e-08
2.782599824e-08
2.814926661e-08
2.710928585e-08
2.718241524e-08
2.798935763e-08
2.798907318e-08
2.715709592e-08
2.68892165e-08
2.791225418e-08
2.752592326e-08
2.746248074e-08
2.690798784e-08
2.803394552e-08
2.753140938e-08
2.7667392e-08
2.742974943e-08
2.861188627e-08
2.79107586e-08
2.832984558e-08
2.873456655e-08
3.005137214e-08
2.907406176e-08
2.98562269e-08
3.099479924e-08
3.25069677e-08
3.111147096e-08
3.239399769e-08
3.422081239e-08
3.596486872e-08
3.390737382e-08
3.59462216e-08
3.865046328e-08
4.070671687e-08
3.75953068e-08
4.08069655e-08
4.469084121e-08
4.716964109e-08
4.230828042e-08
4.743101018e-08
5.299581659e-08
5.607368442e-08
4.816451086e-08
5.655158843e-08
6.432417377e-08
6.821054034e-08
5.463443667e-08
6.899016196e-08
6.76107196e-08
8.489244694e-08
6.811965824e-08
8.608382665e-08
8.450309132e-08
1.07229225e-07
9.25763937e-08
1.089338371e-07
1.068704839e-07
1.349018135e-07
1.22185811e-07
1.370615386e-07
1.335650017e-07
1.60688591e-07
1.506329866e-07
1.627697791e-07
1.561149604e-07
1.660377083e-07
1.591013607e-07
1.669629917e-07
1.567349923e-07
1.352708991e-07
1.30230596e-07
1.34267216e-07
1.239974185e-07
8.346436281e-08
7.838695188e-08
8.15592988e-08
7.766954344e-08
6.321073934e-08
6.077915069e-08
6.318540912e-08
6.225787162e-08
7.169580151e-08
7.13450804e-08
7.342489167e-08
7.302851912e-08
9.518629469e-08
9.570762618e-08
9.816022585e-08
9.854815787e-08
1.360612252e-07
1.40890265e-07
1.417031617e-07
1.432361579e-07
2.013768579e-07
2.113251746e-07
2.097150695e-07
2.15496178e-07
2.966834227e-07
3.10134383e-07
3.126476723e-07
3.166026511e-07
4.351061095e-07
4.381859915e-07
4.448304596e-07
6.030859029e-07
6.09558639e-07
8.050309469e-07
7.757581802e-07
8.46182233e-07
1.017694335e-06
1.186552688e-06
1.580731094e-06
2.268983121e-06
2.35157203e-06
2.999278826e-06
3.428368735e-06
3.805193721e-06
3.708351207e-06
2.989115426e-06
1.994208124e-06
1.155786644e-06
6.481368971e-07
3.648976968e-07
1.908392071e-07
9.456110028e-08
4.551244636e-08
2.15686528e-08
9.918954429e-09
4.26528414e-09
1.612114943e-09
5.205581379e-10
1.383388485e-10
2.913102367e-11
4.48229087e-12
4.547188365e-13
6.982595188e-14
5.966261666e-14
1.197931517e-11
1.1660432e-11
2.422513577e-11
1.679407818e-10
1.093967037e-09
5.462273309e-09
2.143989265e-08
6.624287334e-08
1.614333377e-07
3.08977486e-07
4.699865983e-07
5.665909319e-07
5.565647199e-07
4.967279395e-07
4.307892544e-07
3.638152007e-07
2.796115321e-07
1.86239904e-07
1.231831712e-07
9.202090632e-08
8.339757262e-08
8.659859335e-08
1.100229558e-07
1.193302232e-07
1.209375703e-07
1.186861756e-07
1.146252581e-07
1.014480655e-07
1.048412922e-07
9.94416906e-08
1.047558351e-07
9.570988616e-08
9.547726438e-08
8.416482327e-08
8.572023966e-08
8.584418521e-08
7.770776485e-08
8.015747925e-08
8.009856069e-08
7.769471597e-08
7.590452593e-08
7.57123395e-08
7.701233998e-08
7.457233752e-08
7.457340803e-08
7.630286028e-08
7.63161412e-08
7.450270039e-08
7.385691767e-08
7.625099262e-08
7.477638638e-08
7.522629091e-08
7.390834015e-08
7.654923986e-08
7.47279559e-08
7.572875596e-08
7.527928546e-08
7.805989235e-08
7.568504885e-08
7.745919054e-08
7.879549225e-08
8.192458954e-08
7.879799146e-08
8.155321438e-08
8.490060517e-08
8.85228766e-08
8.428641944e-08
8.836910926e-08
9.361005535e-08
9.780277417e-08
9.185861004e-08
9.79006024e-08
1.055740832e-07
1.105354056e-07
1.019540191e-07
1.109519758e-07
1.218981968e-07
1.279000503e-07
1.150779521e-07
1.287483358e-07
1.443274241e-07
1.518045372e-07
1.318718372e-07
1.532308303e-07
1.749125959e-07
1.843723497e-07
1.518092025e-07
1.866023956e-07
1.841862222e-07
2.291605993e-07
1.891444375e-07
2.324823648e-07
2.299183141e-07
2.891183697e-07
2.527799026e-07
2.937762475e-07
2.904463622e-07
3.630071727e-07
3.304723773e-07
3.687491016e-07
3.621610973e-07
4.304364462e-07
4.03956629e-07
4.356257624e-07
4.210413943e-07
4.423080268e-07
4.230181967e-07
4.439157356e-07
4.198402172e-07
3.605581408e-07
3.454152846e-07
3.56735424e-07
3.314345804e-07
2.226346718e-07
2.072346122e-07
2.165305165e-07
2.074618398e-07
1.650064607e-07
1.572451455e-07
1.641567795e-07
1.629316764e-07
1.820437886e-07
1.79819128e-07
1.856852169e-07
1.859945623e-07
2.344404969e-07
2.340548084e-07
2.406984904e-07
2.431373029e-07
3.243037231e-07
3.331236471e-07
3.349490614e-07
3.406873775e-07
4.677346601e-07
4.8693379e-07
4.818158928e-07
4.982581159e-07
6.826645829e-07
7.081449507e-07
7.145649182e-07
7.303495156e-07
1.009664829e-06
1.013607962e-06
1.04136875e-06
1.441623029e-06
1.459981418e-06
1.984079011e-06
1.904149509e-06
2.106506403e-06
2.563768345e-06
2.983837086e-06
3.861289286e-06
5.205063537e-06
5.374764806e-06
6.312076951e-06
6.814838538e-06
6.869414071e-06
6.121883631e-06
4.717942263e-06
3.108840673e-06
1.770955542e-06
9.582484799e-07
5.340417768e-07
3.080399483e-07
1.634475531e-07
8.292659417e-08
4.055868205e-08
1.8520841e-08
7.639234562e-09
2.729131553e-09
8.415384773e-10
2.177239801e-10
4.52580859e-11
6.9097598e-12
6.853614576e-13
9.152719254e-14
7.49061447e-14
1.640236539e-11
1.595745191e-11
3.275476588e-11
2.248376985e-10
1.4647548e-09
7.402383472e-09
3.015388843e-08
9.93931577e-08
2.58553896e-07
5.118209304e-07
7.749745467e-07
9.129678348e-07
8.771128592e-07
7.638750982e-07
6.609572955e-07
5.816526377e-07
5.022583437e-07
3.953871946e-07
2.866426241e-07
2.303434235e-07
2.164328667e-07
2.278165484e-07
2.84126009e-07
3.111750634e-07
3.150928278e-07
3.087939821e-07
3.011400574e-07
2.680123788e-07
2.74801999e-07
2.587262507e-07
2.734906916e-07
2.478984334e-07
2.470461007e-07
2.184162027e-07
2.202158429e-07
2.213676344e-07
2.008739399e-07
2.056049832e-07
2.052538118e-07
2.003762605e-07
1.950253037e-07
1.929867756e-07
1.972454761e-07
1.919249249e-07
1.914327468e-07
1.947298069e-07
1.947971884e-07
1.912414867e-07
1.896916059e-07
1.948866432e-07
1.901993682e-07
1.927368944e-07
1.896538654e-07
1.953853582e-07
1.897853817e-07
1.93705747e-07
1.928561396e-07
1.989056345e-07
1.91922393e-07
1.977624503e-07