/*--------------------------------*- C++ -*----------------------------------*\
| =========                 |                                                 |
| \\      /  F ield         | OpenFOAM: The Open Source CFD Toolbox           |
|  \\    /   O peration     | Version:  2206                                  |
|   \\  /    A nd           | Website:  www.openfoam.com                      |
|    \\/     M anipulation  |                                                 |
\*---------------------------------------------------------------------------*/
FoamFile
{
    version     2.0;
    format      ascii;
    arch        "LSB;label=32;scalar=64";
    class       volScalarField;
    location    "0";
    object      omega;
}
// * * * * * * * * * * * * * * * * * * * * * * * * * * * * * * * * * * * * * //

dimensions      [0 0 -1 0 0 0 0];

internalField   nonuniform List<scalar> 
31329
(
63679.52878
63378.94102
63098.97166
62777.57596
62589.34163
62556.84232
62519.47588
62476.51468
62427.12285
62375.20796
62319.77806
62256.05633
62182.8063
62121.41204
60338.43734
59985.65192
59585.49871
59115.01724
58480.42771
57779.72887
56993.42309
56111.57793
38557.4747
42437.60038
41066.64598
37590.93103
44795.59272
44849.26077
44210.05091
37623.27868
41746.74418
38277.06696
37795.54073
42847.30238
36271.18623
38304.49058
42690.95377
36906.51169
36404.07398
41343.45794
39673.81696
34938.62449
37137.55545
41379.13172
39852.3543
35529.224
35602.81759
39838.45689
40889.062
36656.68403
34442.39254
38692.40835
41236.36793
36742.89375
34301.41786
38484.10954
41155.39736
36678.11013
34170.10035
38208.95217
41099.64165
36645.36252
34146.56406
37965.41868
41059.82439
36618.33792
34239.92118
37727.98779
41021.99691
36591.79257
34539.09677
37493.06508
40989.84036
36570.49498
35237.96393
37266.67355
40969.94027
36562.74042
36780.24358
37054.41341
40958.11332
36557.75472
40192.83422
36845.09775
40947.50663
36553.09767
47964.36474
36638.00107
40942.40272
36554.43398
47834.00969
36438.62935
40777.89519
36562.38431
39866.2858
36246.31248
40568.42423
36571.41287
36283.80255
36055.3599
40361.26744
36579.75832
34573.80947
35864.58837
40154.63804
36586.73227
33686.34309
35673.3149
39948.27466
36596.04321
33194.53629
35485.61373
39745.31713
36731.62311
33059.61509
35434.52692
39648.07496
36730.62921
32877.39823
35238.67091
39433.11939
36712.52502
32740.56276
35025.48381
39205.46678
36616.71968
32613.19265
34668.01502
38572.93617
37374.55868
33416.2692
33325.96462
37273.6493
38310.78922
34335.24573
32272.84868
36571.78176
37841.65485
33263.79146
33653.98444
38841.71833
34652.72224
32731.61776
38582.05191
33882.41871
34205.2768
37148.82277
33675.80583
39077.56767
37953.11041
39193.16343
32754.89355
35522.2009
36481.4289
32993.99184
44725.97666
45216.73197
45686.88281
46133.87761
46556.90429
46988.5832
47407.45618
47794.81567
48151.29762
48474.01121
48760.03446
49020.88503
49258.63728
50728.62587
50701.61048
50678.12516
50657.70816
50639.95822
50595.22573
50528.21116
50469.9696
50509.12249
63736.29416
13555.55392
9907.640536
9581.822964
9523.575388
9505.408802
9492.489212
9480.869065
9470.195239
9461.257366
9458.733888
9447.95273
9434.1984
9421.605933
10899.95353
11124.10945
11392.04292
11979.61042
11981.48372
12266.44829
12614.84285
12992.59323
22723.50319
20624.77106
21241.89282
22732.12414
18944.08214
19250.24816
18978.97956
22344.31676
20147.59125
21581.84407
21783.89343
19212.31061
22244.3401
21328.08218
19026.03718
21704.00917
21914.13764
19620.84396
20182.32242
22295.56953
21302.13514
19304.99889
19836.4427
21756.89487
21720.5543
19803.69482
19135.27452
21082.6183
22078.31124
20150.55484
18779.59832
20871.5784
21983.15065
20068.87255
18621.59081
20707.09296
21866.82686
20004.11897
18514.41781
20605.30764
21798.15879
19997.33841
18395.09173
20486.05706
21672.42234
19973.19625
18275.07768
20366.97258
21475.87455
19948.6378
18157.96918
20251.486
21130.26899
19927.0691
18049.35027
20146.37675
20425.96238
19914.92731
17941.61775
20041.90645
18709.7519
19902.73354
17833.95525
19937.80589
13894.94645
19890.41926
17770.98217
19838.26046
13857.45859
19882.17984
17779.00022
19743.27439
18558.27788
19877.97598
17789.86678
19648.63045
20150.89789
19873.60503
17800.17427
19554.1522
20732.89186
19868.97329
17809.7725
19459.77578
20946.56031
19864.20634
17820.04597
19388.57843
21016.35826
19888.76767
17901.30338
19407.4444
21148.10302
20000.66452
18005.18693
19349.75614
21107.43968
20009.01041
18034.01203
19241.95013
21028.6811
19986.76438
18025.55436
19166.63298
20951.51885
20025.88662
18215.4362
18663.63858
20433.58551
20467.31039
18661.99369
17907.40759
19706.45688
20615.389
18675.03051
17918.36756
20002.11564
19828.02161
17378.33447
19262.30522
20112.75358
17372.04201
19490.847
19342.43088
17882.87827
19755.74907
16879.43476
17724.71979
16690.16298
19789.71147
18307.73029
17834.91765
19471.82689
13181.89118
12697.98874
12234.26237
11790.5299
11372.74891
10987.67833
10631.83451
10302.38993
9998.638704
9717.887191
9457.748231
9219.460019
9018.272175
8120.309697
8050.671998
8025.745555
8026.262045
8021.165246
8013.071909
7962.864089
11163.81907
50598.89747
63736.29641
9958.885096
3911.75351
2976.170029
2819.367617
2787.425764
2775.951271
2768.845608
2764.20896
2766.025039
2851.348826
2851.345291
2845.732886
2839.746453
2976.794784
2994.693991
3019.984686
3121.610509
3071.011968
3086.201739
3111.717273
3139.143749
4199.769043
3970.649917
4034.988983
4180.872387
3771.655959
3752.889581
3765.161119
4111.311503
3887.260286
4032.778094
4053.917441
3772.377121
4094.094652
3996.145668
3742.281142
4026.207752
4048.305901
3803.022057
3853.060887
4077.246904
3971.287351
3757.779296
3805.966689
4009.806236
4005.778329
3801.14906
3723.516566
3930.324473
4036.197747
3830.457035
3673.364965
3897.268622
4017.39283
3806.655449
3634.005648
3851.190047
3970.270995
3777.202296
3622.5617
3853.100359
3983.206637
3788.948379
3617.27525
3839.44465
3963.288315
3784.355291
3598.597071
3820.802621
3933.682888
3775.810716
3580.665201
3803.090191
3885.818799
3768.163198
3564.405044
3787.320154
3794.784364
3762.319977
3548.406182
3771.660035
3588.38064
3756.488907
3532.415956
3756.035018
3066.552436
3750.655854
3517.0553
3741.204192
3058.44498
3745.578634
3521.061304
3727.180408
3559.911886
3741.240171
3518.320225
3713.179424
3744.665224
3736.85404
3515.498534
3699.161201
3814.116352
3732.404891
3512.562648
3685.186619
3838.479584
3727.993018
3509.842483
3678.047534
3847.973541
3731.727477
3522.729409
3781.570353
3981.085618
3850.604947
3621.497132
3773.717045
3973.47235
3848.730091
3622.509693
3756.619227
3960.000034
3841.357273
3616.77633
3743.41523
3946.838084
3841.264667
3633.966936
3679.637467
3882.557777
3886.1438
3676.857471
3494.230523
3682.560797
3778.048195
3571.893261
3483.977764
3705.629891
3686.901275
3425.083623
3621.231651
3711.68993
3418.868668
3640.183478
3624.132126
3464.645394
3652.627609
3356.616614
3405.01652
3332.316992
3656.635029
3500.077433
3449.476693
3620.204735
2907.719516
2852.847166
2797.273042
2739.354326
2682.913397
2631.633621
2588.370245
2553.86253
2526.876637
2504.174096
2483.318848
2463.939718
2450.332356
2399.809216
2389.554117
2385.608826
2389.216525
2407.612817
2521.273969
3243.807424
7964.618497
50598.89974
63736.29918
9681.237169
2984.923183
1615.64884
1277.281006
1192.742231
1168.795167
1159.436851
1155.068245
1155.304257
1176.534932
1177.346715
1173.863218
1169.432855
1193.782934
1195.678155
1200.143673
1221.462156
1208.915311
1210.185122
1212.758229
1215.06449
1451.26078
1398.586178
1412.215128
1440.237543
1348.28511
1332.19719
1343.825179
1416.557328
1369.906633
1399.785233
1404.320683
1340.398074
1410.704753
1389.01707
1330.959592
1392.871993
1397.656867
1343.559888
1351.923419
1401.046992
1377.573484
1330.559442
1338.954665
1383.512248
1382.583465
1337.558354
1318.896327
1364.088956
1387.47838
1342.029612
1305.658338
1354.677221
1381.295811
1334.35656
1277.721064
1321.492628
1345.81219
1306.324746
1289.809023
1340.664396
1369.387531
1326.504087
1287.531055
1336.019449
1362.740441
1323.782198
1281.488885
1329.999903
1353.55303
1320.002663
1275.947737
1324.543115
1339.93018
1316.779062
1271.081414
1319.825692
1315.81838
1314.246068
1266.307773
1315.118367
1265.192165
1311.692229
1261.505515
1310.386079
1149.666388
1309.110926
1256.909715
1305.914978
1146.694315
1306.787326
1257.433128
1301.723517
1255.388034
1304.723541
1255.710915
1297.503458
1298.837093
1302.609345
1253.934265
1293.22956
1315.754764
1300.432695
1252.09197
1288.967274
1321.437486
1298.270816
1250.314458
1286.419148
1323.084265
1298.185508
1252.754655
1306.886648
1350.252289
1321.947499
1272.297975
1304.455481
1347.624904
1320.550503
1271.617413
1299.510665
1343.495272
1317.702285
1269.167333
1295.712915
1339.739241
1316.763328
1271.998035
1281.115653
1325.04805
1325.790811
1280.152471
1241.465542
1282.338838
1303.283749
1258.005867
1238.25646
1286.967093
1282.810225
1225.130074
1267.152469
1287.071126
1222.457223
1269.649919
1266.061045
1230.220845
1268.427098
1206.428867
1207.842719
1201.192683
1272.302206
1240.27076
1229.445031
1267.792911
1103.668862
1088.116041
1068.481408
1042.876107
1015.382316
991.1081892
975.2301943
967.4485827
966.9552382
969.3838732
971.8650227
973.4741398
975.3265872
969.4576272
973.0060426
977.8850493
994.7091647
1062.255911
1342.150646
2495.777753
7807.657901
50598.90234
63736.30247
9656.530978
2834.288699
1271.319876
795.1354549
645.7579682
598.7250536
582.6221779
576.6815005
575.7174347
581.7213474
582.4111406
579.6563689
575.6494159
580.3265553
579.8639498
581.0342074
586.3911886
584.2800788
584.6579576
584.3756464
583.4505847
657.4493667
639.5050769
643.4951924
650.1819857
620.3220885
611.2742187
617.6225115
639.0641614
625.4857265
634.0476929
635.4293168
614.6448623
636.5533925
629.665349
610.7103083
629.9342261
631.4154956
614.4057383
616.2147326
631.6222307
624.1457056
609.4126267
611.4525373
625.356416
625.0518295
610.9288316
604.6902044
618.7695212
626.2105052
611.8318157
599.9923434
615.2726228
623.7356555
608.8240665
590.8910266
604.5488989
612.2705021
599.7243296
593.4527987
609.33637
618.3747483
604.8366612
591.8047073
606.8236807
615.0069692
602.9246038
588.996126
604.0419837
610.9081518
600.8650309
586.6331089
601.7400238
605.4497439
599.2780593
584.6785032
599.8564135
596.5084148
598.0801931
582.7563524
597.9481698
579.0842842
596.8419583
580.7861383
595.9915578
542.9764833
595.5579488
579.9720768
594.148605
541.6085296
594.3897476
578.9362892
592.4397806
574.7241287
593.3464839
577.9908933
590.6788474
589.0236938
592.2401798
576.9839255
588.8546887
594.8213371
591.0705083
575.9246733
587.0650352
596.751839
589.9404783
574.9176476
585.8723958
597.1563974
589.5343837
575.4014202
591.6873125
605.1985218
596.3693469
580.9564562
590.6832703
604.1276744
595.6428602
580.4859866
588.9680538
602.6855434
594.5916455
579.6041176
588.0230468
601.7752496
594.566397
580.7955274
584.3192439
598.0139695
598.2633459
584.1497742
573.6864954
586.5402289
593.2131889
579.0487672
573.9423688
589.3960888
588.0929435
569.9694848
583.002783
589.305447
568.9003282
582.9771215
581.8366945
570.6463859
581.3330931
563.4194892
561.6389096
563.0570218
586.4740415
578.8810771
575.8022921
588.8214768
534.6787471
524.2888036
508.5636283
486.0748977
462.2591038
443.1116975
433.772179
431.6557156
437.2701628
445.5316284
453.5575077
460.2077757
465.7442215
473.5930622
475.4415352
489.7008344
530.2500263
658.2731322
1064.208647
2412.204536
8049.207345
50598.90533
63736.30635
9652.398531
2806.441163
1179.04602
633.9345672
433.4165127
360.2352473
333.959344
324.8524665
322.6632662
324.2008932
324.365917
321.8246635
317.9446095
317.6185847
316.6958593
317.1744268
319.1916134
319.7473906
320.2649645
319.5851768
318.1391704
346.2993977
338.1426322
339.4928848
340.6031342
328.2446273
322.9973423
326.4610931
334.1311756
329.3795527
332.3668732
332.8908368
324.4431643
332.974775
330.2285806
322.5533403
330.0081335
330.5855162
323.9176108
324.4382419
330.5024249
327.5147502
321.7736972
322.535482
327.9787383
327.8571866
322.3309338
319.9157156
325.4094584
328.3898603
322.6986435
318.0683517
324.0270559
327.3985004
321.4989039
314.5541186
319.9112429
323.0004438
317.9781991
314.8993395
321.0424044
324.5570584
319.2285667
313.5317046
319.2956343
322.3532626
317.7259096
311.8546958
317.6510103
320.0207279
316.3841433
310.626917
316.4818545
317.3406038
315.5085121
309.7232731
315.6258126
313.3296462
314.9218766
308.8260011
314.7278146
306.0012074
314.2820196
307.8667941
313.7662941
292.0609924
313.5823686
307.4902258
312.8643193
291.345558
312.9460452
306.9101152
312.0481237
303.7793949
312.3896008
306.3831845
311.1678395
309.5403393
311.7612126
305.7870744
310.218207
311.9691565
311.0665903
305.1443888
309.3353597
312.8329999
310.4458121
304.5745609
308.7351462
313.0270601
310.15847
304.6526554
310.8089159
316.0464763
312.629161
306.6534621
310.4562701
315.7040656
312.3874384
306.5405394
310.0763899
315.4543336
312.2892298
306.5622863
310.5195994
315.9366026
313.1317073
307.9437024
310.7313216
316.1543554
316.2899801
310.9830416
309.1648374
314.4236133
317.148893
311.6844101
311.2650429
317.571099
317.0726547
309.9327181
314.9451114
317.4444269
309.3546657
314.1734593
313.7213629
309.5841066
313.0755301
307.0532228
306.179309
308.3531908
318.6781399
317.2574807
316.1854823
321.0781189
296.3632784
285.1195743
268.1027643
246.1554387
225.6256401
211.8896959
206.4393573
206.3619177
212.8149385
221.7880447
231.0249767
239.3640389
246.8555449
255.3508713
265.9689341
292.6076743
359.2812275
533.0944069
997.6375076
2386.040246
7995.817715
50598.90877
63736.31089
9650.564342
2799.398889
1152.957896
578.5445939
347.0478121
252.1835565
215.0129848
201.7693733
198.1801874
197.9554215
197.5290163
194.9408894
191.087768
189.1352371
188.0634557
188.3127197
189.5854
190.6849067
191.2089235
190.3788696
188.7383719
200.4522289
195.7243588
196.1539618
195.4222351
189.3243121
186.0933893
188.0574065
191.1076684
189.2955719
190.4912823
190.7228219
186.7663476
190.632428
189.357541
185.8271672
189.1934705
189.4593927
186.438208
186.7461425
189.533372
188.1504843
185.5750285
186.1126424
188.6117818
188.5591174
186.055344
185.1526347
187.6610267
189.0525399
186.445768
184.5172671
187.2349358
188.7925201
186.1019601
183.1150325
185.5871828
187.0270651
184.6750909
182.8234245
185.5535547
187.1033406
184.681077
181.5769446
184.1068373
185.3656192
183.3569894
180.3641595
182.9334229
183.7812452
182.3417878
179.6277542
182.2587094
182.2858128
181.8137755
179.1912944
181.8622987
180.2906896
181.5408389
178.7477772
181.412632
176.8053344
181.2046855
178.2308621
180.8872651
170.622039
180.7971228
177.7349417
180.4003922
170.218235
180.432902
177.6993588
179.9873721
175.5901087
180.1378973
177.4095108
179.5058091
178.2378149
179.7672023
177.0468583
178.9517919
179.3868145
179.3291023
176.6439289
178.5031679
179.8845539
179.0058003
176.3491761
178.2542176
180.102557
178.9041206
176.4157917
179.2205591
181.5461293
180.0537929
177.3808936
179.3210174
181.689659
180.2206218
177.6402816
179.7559931
182.2088483
180.8140737
178.3534032
181.2002928
183.7010918
182.4897828
180.3553811
183.5498635
186.1404882
186.2522985
184.0893202
185.8696334
188.5701975
189.9212402
187.5177925
188.7348264
191.8439112
191.6170047
188.2420852
189.826404
190.9433628
187.1733733
188.3762037
188.1560338
186.4083367
187.6096331
185.4988036
185.4562843
187.1310608
192.4491049
192.0243066
191.4004364
191.9386099
175.6336123
163.1648782
146.1033127
128.5169973
115.6325786
109.0438338
107.0507759
107.8109534
111.9848838
118.2524285
125.7013653
133.6778751
142.3149828
153.5851005
171.7008094
210.7127193
297.2829916
496.147881
983.737234
2390.160534
8028.371142
50598.91274
63736.31622
9648.888362
2796.856776
1148.040627
558.7727846
310.4547084
200.8899755
154.6210525
137.3161642
132.1509878
130.8720846
129.8418248
127.0371034
123.1561626
120.5608564
119.3402488
119.3771157
120.3103529
121.2772009
121.5820899
120.4976305
118.657075
123.4316173
120.1083486
120.163762
118.7937716
115.3957626
113.3119892
114.5098155
115.7838766
115.0981358
115.6822628
115.7997265
113.811224
115.7726868
115.1168053
113.4107779
115.1167539
115.2577153
113.7509886
114.1124024
115.5463653
114.8450253
113.5811147
114.1521618
115.4503951
115.4289158
114.1756064
113.989829
115.2815565
116.0015939
114.6902657
113.9638661
115.3624878
116.1565617
114.8108736
113.488836
114.7813915
115.5242458
114.2921256
112.9774217
114.3052796
115.0333681
113.8180042
111.7630238
112.9608857
113.4786202
112.5489661
110.7603753
112.0074713
112.2626086
111.6964585
110.2693709
111.5822021
111.3594221
111.3581834
110.0746832
111.4250808
110.3277321
111.2643793
109.8637462
111.2054442
108.5449409
111.0984
109.5701002
110.9002208
105.5265699
110.8517317
109.4587646
110.629135
105.2939804
110.6451579
109.2730837
110.4381772
107.881536
110.5146
109.1375565
110.1807565
109.231854
110.310296
108.9311784
109.8546113
109.8341821
110.0439705
108.696949
109.6781236
110.2190536
109.9393298
108.6161213
109.7139292
110.5573563
110.0575602
108.8235966
110.4305251
111.5483874
110.874939
109.5769203
110.9712575
112.1424653
111.4709502
110.2616806
112.1051296
113.3432791
112.7223257
111.651312
114.4829798
115.7819166
115.2746316
114.4567658
118.3618222
119.8454688
119.9579238
119.105831
122.449297
124.135176
124.9383559
123.7274873
124.9225623
126.6419148
126.4913938
124.490172
123.5598967
124.0390946
122.0231522
121.3228795
121.1805091
120.2132613
120.6215897
119.8626784
120.0499271
121.0046757
123.7409953
122.5821053
121.9217401
119.6579945
106.1964049
94.38315221
81.54446121
72.27254022
68.35400505
67.62840336
68.82091287
70.19898093
71.78281277
74.26462851
78.16582903
84.0672765
92.71945899
106.4633063
130.513485
178.4088428
276.1515609
485.5226878
979.492756
2385.76113
8013.929716
50598.91729
63736.3225
9646.847263
2794.453283
1144.477349
549.5192925
293.0657089
174.9227763
122.4406944
101.9618905
95.3522045
93.18111413
91.51372807
88.33384592
84.56090035
81.3951527
79.95219241
79.73435749
80.27867392
80.83875572
80.73272881
79.30724106
77.30044814
78.88885614
76.27518452
76.17636901
74.71584414
72.71808943
71.34036867
72.18753977
72.73238328
72.51873531
72.95065584
73.02196999
72.05265398
73.14731234
72.78790239
72.02829492
72.98122519
73.06681627
72.27232716
72.75919094
73.56468448
73.19240428
72.54155555
73.21018681
73.95843561
73.9532313
73.2832835
73.48562014
74.22099659
74.61908532
73.92324625
73.80142851
74.59880994
75.03030503
74.31740433
73.75592332
74.50244481
74.91236178
74.20876605
73.14051013
73.81906002
74.16335323
73.50693204
71.9089467
72.48540798
72.66380645
72.2303377
71.01606139
71.65543471
71.66442386
71.47651471
70.66904561
71.37653504
71.09816586
71.25718707
70.61973418
71.36423779
70.58538375
71.28015027
70.54547505
71.27974418
69.64615328
71.22133649
70.38326191
71.10438483
68.0747446
71.07743835
70.32092621
70.96825733
67.95644292
70.97992083
70.24195111
70.9328328
69.34996238
70.97913145
70.23156013
70.83883371
70.13105113
70.91223224
70.15905181
70.68790599
70.51070911
70.79651882
70.07749852
70.74115977
70.91415309
70.90008831
70.21022784
71.07243883
71.45443044
71.2887527
70.65773941
71.91380708
72.46874423
72.19827527
71.56489268
72.95898089
73.56810382
73.29976935
72.76564714
74.81768884
75.48695494
75.26497069
74.89341684
78.13048033
78.87926359
78.73193034
78.57329574
83.0490908
84.0727503
84.18603641
83.87976497
87.38784664
88.55496927
89.11998936
88.31119957
88.11900297
89.04085287
88.87488428
87.30321738
84.17112386
84.28701957
83.05875246
81.33838157
81.22077249
80.42851568
80.54023113
80.18572193
80.09702793
80.6855239
81.77928264
79.85201474
79.11667934
75.51774963
64.64508661
56.29766048
50.67902876
48.81279971
49.93738635
53.11930727
56.69298024
59.28188959
60.19255
60.51999894
61.51473012
64.95368048
72.62887209
87.37927192
114.6211324
166.9879723
269.4613304
482.4544243
978.4724504
2386.604956
8019.687958
50598.92253
63736.32996
9644.332897
2791.578519
1140.479598
543.1420746
282.7891392
160.133331
104.1325815
81.67338973
73.93398914
70.94973812
68.55672368
64.8443012
60.75804604
57.41395381
55.68699834
55.16533374
55.23846706
55.3468811
54.68673362
52.98620361
50.95170976
51.11768654
49.03466972
48.89492438
47.65110508
46.50225543
45.58462639
46.33292734
46.57088643
46.57716941
47.05108864
47.10617933
46.75350347
47.42452431
47.22351015
47.02948502
47.61729003
47.677531
47.25188474
47.88488591
48.37327419
48.17580644
47.83909476
48.61332479
49.08701989
49.09135552
48.71964401
49.15462659
49.6126323
49.84124178
49.46624511
49.66421752
50.16276564
50.408549
50.01510326
49.80118203
50.26473303
50.49989911
50.0677082
49.09988553
49.44780234
49.60038047
49.22126976
47.83419762
48.09187373
48.10458973
47.917205
47.01705593
47.35478869
47.2638132
47.24488819
46.77246324
47.17763848
46.91193956
47.11355871
46.82796532
47.27098075
46.71291973
47.22774978
46.84953882
47.28030681
46.23326305
47.24858059
46.78237415
47.19976784
45.39554165
47.18627311
46.75505806
47.17330153
45.37255028
47.18660253
46.77572685
47.27787943
46.25380153
47.31411877
46.89184445
47.33928142
46.80959477
47.39014674
46.96186882
47.36584805
47.14474524
47.44125949
47.05265415
47.66059356
47.66485049
47.77927266
47.43160146
48.33590276
48.49209246
48.50473145
48.20887791
49.50787224
49.78150318
49.73354266
49.47440887
51.13601479
51.46157561
51.42306368
51.27996799
53.7563203
54.14256428
54.14816238
54.18455887
57.90924307
58.41069082
58.43875929
58.60393874
63.0640548
63.86567119
63.96655338
63.81230738
66.22073899
67.00249707
67.4614179
66.63538711
64.18880113
64.48196884
64.27110784
62.84467737
58.36295913
58.27019383
57.44599528
55.49503834
55.39470395
54.6965712
54.59806215
54.4668764
54.01935366
54.46536199
54.64792534
52.62684895
51.99185774
48.59237044
41.3988657
38.20006361
37.28260555
38.8754473
42.53264387
47.42921806
52.48297509
56.78770336
58.67325506
58.79438339
58.76954834
60.82011213
67.51163205
82.12730615
110.2084333
163.891606
267.6677622
481.4970825
977.8515642
2386.057333
8019.092388
50598.92856
63736.33891
9641.375933
2788.246418
1136.181579
537.3967466
275.0086306
150.2159718
92.67771731
69.27469113
60.71882562
56.98311955
53.74727259
49.37609514
44.94080737
41.43902351
39.47197719
38.62025659
38.28283035
37.89443189
36.78110769
35.00338746
33.13829561
32.81314727
31.27962885
31.16471514
30.27166225
29.68525827
29.02971178
29.82718995
29.95304395
30.06496525
30.64753876
30.69864721
30.75137832
31.20430175
31.09634293
31.27972668
31.68234072
31.73111376
31.51211403
32.28591446
32.60495678
32.5067193
32.34307936
33.21294022
33.53958342
33.55012565
33.34317972
33.92692651
34.23798042
34.37307005
34.17347317
34.5313956
34.86820978
35.01402155
34.78774668
34.70263058
35.00355515
35.14176868
34.85490612
33.90899385
34.07293904
34.1246481
33.89124612
32.61771919
32.70240274
32.63324953
32.57349652
31.87673796
32.05812184
31.93292989
31.98787889
31.7181115
31.9631542
31.73144762
31.93157368
31.86140059
32.14604195
31.74653692
32.1273731
31.96693102
32.23678986
31.54454389
32.2219528
31.98591244
32.24328448
31.12253774
32.24059271
31.99153915
32.32984851
31.20545183
32.34902621
32.12398306
32.58467853
31.90270908
32.62180618
32.38603776
32.81998286
32.42427904
32.86613233
32.62669996
33.05228029
32.83558033
33.11911128
32.92745461
33.62700377
33.55805758
33.73679608
33.60072924
34.6924717
34.74117073
34.85283309
34.77284296
36.3006317
36.43644986
36.51490737
36.49948283
38.53389663
38.72089344
38.81351348
38.92903061
41.85407565
42.11026919
42.23465811
42.52571993
46.44161889
46.88355488
46.92187495
47.15265802
50.77401461
51.39627398
51.46282237
51.23489868
51.52716274
51.94317695
52.3353352
51.33618368
46.94118292
46.7111752
46.48868853
45.32383049
40.79861769
40.6429858
40.09543995
38.56441557
38.49381799
37.99861663
37.77106204
37.82257116
37.28714936
37.71016575
37.50743535
36.06832522
35.66510433
33.45124029
30.29348759
29.76726953
30.92325572
33.82898975
38.07017672
43.46094038
49.588896
55.52316055
59.87348386
62.10495669
62.4409384
63.53139331
69.07426441
82.86326783
110.5551736
164.1133426
267.8306868
481.5668914
977.8594458
2386.157872
8019.375187
50598.93549
63736.34982
9638.138563
2784.660605
1131.679837
531.7540378
268.1668817
142.5480758
84.6885798
60.98459031
51.79608872
47.34324757
43.17289756
38.1439515
33.38295419
29.83667695
27.79015209
26.71917425
26.08823277
25.29199403
23.97516414
22.37772591
20.86117662
20.52156146
19.55046375
19.48653028
18.92060307
18.70642485
18.20543368
19.06012297
19.13908858
19.30517577
19.96030103
20.01028862
20.32011977
20.65127767
20.60247129
21.03452305
21.3382148
21.38169348
21.28494068
22.17005191
22.39436753
22.35478694
22.29166228
23.23616887
23.4790028
23.49389018
23.38403084
24.06488779
24.29549497
24.37961067
24.27452741
24.68178354
24.92106217
25.01129573
24.87277652
24.7976185
24.99629749
25.07907958
24.87067181
23.90726636
23.96041789
23.9552846
23.80524911
22.62809729
22.62020701
22.51165619
22.52090654
21.97861959
22.07906317
21.94913157
22.03381748
21.89983561
22.05730257
21.86159487
22.04627305
22.12108247
22.31962615
22.03108544
22.31771678
22.30706173
22.48975137
22.02334959
22.48771181
22.41890822
22.58935935
21.86853316
22.59721794
22.62098625
22.80570854
22.08260238
22.83426667
22.72564971
23.22629644
22.76883387
23.27112512
23.15545236
23.663329
23.37447427
23.71541578
23.60043968
24.13864311
23.95095963
24.21116434
24.15353833
25.02483565
24.94028041
25.14216233
25.15249783
26.48254396
26.4961196
26.65141999
26.72425183
28.51603213
28.60220889
28.73664621
28.89112613
31.25161953
31.39264478
31.53641236
31.82298366
35.01443269
35.25263058
35.38374751
35.76733348
39.20188513
39.66931264
39.59345639
39.71855647
41.776773
42.21737807
42.23122308
41.79685351
39.90770332
39.94894781
40.16550748
39.23077585
34.16733251
33.69822977
33.52204593
32.76880987
29.35598745
29.23422857
28.91984801
28.0361946
28.00083973
27.79752129
27.57734093
27.71351767
27.36686469
27.71255885
27.52145138
26.82128488
26.6541229
25.66408383
24.75619672
25.20560111
26.82851915
29.48728972
33.32297274
38.4963153
45.05545923
52.58461393
59.70326074
64.60854472
68.10426843
69.79130431
74.68852632
87.40473266
114.41201
166.6362442
269.6090836
482.7878395
978.7081571
2386.786103
8020.015366
50598.94348
63736.36332
9634.930154
2781.299502
1127.531407
526.5756512
262.1167769
136.2526524
78.58584049
54.7976371
45.0280539
39.88876207
34.81469023
29.20664905
24.36997247
21.03251133
19.14423487
18.06238716
17.24510361
16.26713318
15.04154289
13.82337881
12.75004421
12.55214707
12.04242405
12.01555382
11.67014533
11.6765944
11.30397264
12.09660054
12.12668568
12.31825487
12.9489574
12.99501591
13.42586758
13.67471671
13.66516471
14.22609072
14.46871008
14.50842188
14.48467104
15.42245117
15.58886916
15.58535582
15.58179243
16.56705231
16.75892956
16.77687064
16.72659013
17.46036581
17.64616518
17.70504957
17.64533545
18.02499882
18.19796285
18.25492426
18.16260264
18.03638593
18.1669598
18.21648938
18.05175724
17.0709806
17.0552293
17.01304232
16.92035281
15.8671612
15.81790912
15.69279595
15.74072146
15.33156347
15.39224183
15.26698445
15.36406769
15.32599397
15.43553256
15.26977357
15.43811447
15.61110835
15.76128766
15.54794723
15.7714221
15.87341817
16.00865979
15.68573037
16.01749179
16.08408938
16.20827892
15.7297011
16.22725047
16.16601588
16.56403247
16.09447407
16.60401627
16.57434682
17.15673684
16.8547019
17.21315213
17.18360565
17.81439711
17.61700986
17.87902632
17.85607271
18.55371539
18.41505675
18.63948097
18.68081147
19.73974135
19.68234595
19.87004591
19.98345483
21.50649296
21.53664967
21.68501057
21.86046715
23.81503354
23.91055241
24.03921894
24.29923426
26.79693648
26.95336391
27.07767235
27.44961351
30.40779569
30.74124893
30.72963056
30.99908205
33.42051274
33.82344451
33.66025406
33.60194036
33.84790481
34.12587511
34.09431208
33.50821075
30.45015996
30.22275538
30.17878053
29.63018677
25.37174592
24.98242467
24.8778957
24.49101594
22.52785101
22.46049538
22.30781525
21.94004697
21.92985639
21.95091859
21.81648258
21.94437701
21.84282186
22.08580021
22.04469041
21.82402568
21.77953238
21.51865346
21.34451924
22.01111927
23.397724
25.64660761
28.93356477
33.45928865
39.55126273
47.4817217
56.66408796
65.11564921
71.41934769
76.62679034
82.0195452
94.16786167
120.1394024
172.0439839
273.0997672
485.4135652
980.6715675
2388.263443
8021.118498
50598.95267
63736.38017
9632.320822
2779.025135
1124.85524
523.0281031
257.7558792
131.6060347
73.95148134
50.0543305
39.5160176
33.66930101
27.81344347
21.94444291
17.37932386
14.61493687
13.05075057
12.06585448
11.21758282
10.28902895
9.342860279
8.544794447
7.874924106
7.790114765
7.560929307
7.550637775
7.343252027
7.434096257
7.181621246
7.777896252
7.758276432
7.940233449
8.447712836
8.484513157
8.911260561
9.088812627
9.103928802
9.676084341
9.868422561
9.902870635
9.919569321
10.82621127
10.94876101
10.9695186
10.99959884
11.97663013
12.13465025
12.15429668
12.13922334
12.8709973
13.02933522
13.07627691
13.03483806
13.34183366
13.46671046
13.50159891
13.43425845
13.24498492
13.32909514
13.35337584
13.22071078
12.261836
12.2075658
12.13651887
12.09376249
11.21349847
11.15805058
11.02963979
11.09998684
10.80994504
10.85286669
10.7344647
10.83697996
10.86696826
10.94968856
10.80553415
10.96099991
11.19344599
11.31444339
11.14923392
11.3329164
11.51648867
11.62500571
11.39192178
11.64309772
11.818532
11.91896644
11.59424144
11.94825482
12.27820273
12.3999321
12.09439174
12.45086552
12.47645022
13.14887567
12.95667285
13.21795711
13.2529126
14.01615621
13.90038778
14.09570468
14.14265093
14.99426148
14.92157889
15.09402488
15.20402229
16.39560807
16.39352084
16.53444796
16.70745779
18.28945972
18.36597223
18.46679391
18.68846256
20.60419969
20.7358718
20.81615224
21.10967288
23.43331177
23.64969082
23.68188498
23.98768626
26.24127641
26.60426584
26.47246465
26.5559042
27.71928708
28.01781289
27.81568912
27.57409591
26.76719683
26.86554473
26.81411042
26.32469968
23.34269095
23.10238598
22.93971672
22.74532404
20.08525291
19.87789884
19.82797379
19.65071968
18.72578822
18.69322534
18.62602482