/*--------------------------------*- C++ -*----------------------------------*\
| =========                 |                                                 |
| \\      /  F ield         | OpenFOAM: The Open Source CFD Toolbox           |
|  \\    /   O peration     | Version:  2206                                  |
|   \\  /    A nd           | Website:  www.openfoam.com                      |
|    \\/     M anipulation  |                                                 |
\*---------------------------------------------------------------------------*/
FoamFile
{
    version     2.0;
    format      ascii;
    arch        "LSB;label=32;scalar=64";
    class       volScalarField;
    location    "0";
    object      p;
}
// * * * * * * * * * * * * * * * * * * * * * * * * * * * * * * * * * * * * * //

dimensions      [1 -1 -2 0 0 0 0];

internalField   nonuniform List<scalar> 
31329
(
101284.9943
101284.9941
101284.9943
101284.9944
101284.9946
101284.9947
101284.9948
101284.9949
101284.9949
101284.995
101284.9951
101284.9951
101284.9952
101284.9952
101284.9951
101284.9949
101284.9946
101284.9944
101284.994
101284.9937
101284.9932
101284.9928
101284.9912
101284.9913
101284.9912
101284.9908
101284.9914
101284.9914
101284.9914
101284.991
101284.9913
101284.9913
101284.9913
101284.992
101284.9915
101284.9917
101284.9924
101284.992
101284.992
101284.9924
101284.9926
101284.9923
101284.9925
101284.9929
101284.9931
101284.9928
101284.9928
101284.9932
101284.9935
101284.9932
101284.9931
101284.9935
101284.994
101284.9938
101284.9936
101284.9939
101284.9946
101284.9943
101284.9941
101284.9945
101284.9952
101284.9949
101284.9947
101284.9951
101284.9958
101284.9955
101284.9954
101284.9956
101284.9962
101284.9959
101284.9957
101284.996
101284.9965
101284.9962
101284.9961
101284.9963
101284.9968
101284.9965
101284.9965
101284.9965
101284.997
101284.9967
101284.997
101284.9967
101284.9972
101284.9969
101284.9978
101284.997
101284.9975
101284.9971
101284.998
101284.9971
101284.9975
101284.9973
101284.9976
101284.9973
101284.9977
101284.9976
101284.9976
101284.9976
101284.998
101284.9978
101284.9977
101284.9978
101284.9981
101284.9979
101284.9977
101284.9979
101284.9982
101284.9979
101284.9977
101284.9978
101284.9982
101284.9978
101284.9974
101284.9976
101284.9979
101284.9975
101284.9971
101284.9973
101284.9976
101284.997
101284.9966
101284.9968
101284.9971
101284.9964
101284.996
101284.9962
101284.9965
101284.9959
101284.9955
101284.9955
101284.9957
101284.9955
101284.9951
101284.9948
101284.9952
101284.9951
101284.9947
101284.9947
101284.9952
101284.995
101284.9948
101284.9953
101284.9951
101284.9951
101284.9955
101284.9953
101284.9958
101284.9959
101284.9961
101284.9958
101284.9966
101284.9968
101284.9973
101284.9997
101285.0018
101285.0044
101285.0075
101285.0105
101285.013
101285.015
101285.016
101285.0166
101285.0168
101285.0169
101285.0169
101285.017
101285.0171
101285.017
101285.017
101285.017
101285.017
101285.017
101285.017
101285.017
101285.017
101284.9907
101284.9907
101284.9909
101284.991
101284.9911
101284.9912
101284.9913
101284.9914
101284.9914
101284.9915
101284.9916
101284.9916
101284.9917
101284.9917
101284.9916
101284.9915
101284.9913
101284.991
101284.9907
101284.9903
101284.9899
101284.9895
101284.9891
101284.9888
101284.9888
101284.9887
101284.9887
101284.9888
101284.9888
101284.9888
101284.9888
101284.989
101284.989
101284.9894
101284.9894
101284.9894
101284.9897
101284.9897
101284.9898
101284.9898
101284.9902
101284.9902
101284.9902
101284.9903
101284.9906
101284.9906
101284.9906
101284.9906
101284.991
101284.991
101284.991
101284.991
101284.9914
101284.9914
101284.9914
101284.9915
101284.9919
101284.9919
101284.992
101284.992
101284.9925
101284.9926
101284.9926
101284.9926
101284.9931
101284.9931
101284.9932
101284.9932
101284.9935
101284.9935
101284.9936
101284.9935
101284.9938
101284.9938
101284.9939
101284.9938
101284.9941
101284.9941
101284.9942
101284.9941
101284.9943
101284.9943
101284.9944
101284.9943
101284.9945
101284.9945
101284.9947
101284.9945
101284.9946
101284.9947
101284.9949
101284.9947
101284.9948
101284.9949
101284.9951
101284.9949
101284.995
101284.9952
101284.9953
101284.9952
101284.9952
101284.9953
101284.9954
101284.9953
101284.9954
101284.9954
101284.9955
101284.9954
101284.9955
101284.9954
101284.9955
101284.9954
101284.9954
101284.9953
101284.9953
101284.9952
101284.9952
101284.9949
101284.9949
101284.9949
101284.9949
101284.9945
101284.9944
101284.9944
101284.9944
101284.9939
101284.9938
101284.9938
101284.9938
101284.9932
101284.9932
101284.9932
101284.9931
101284.9927
101284.9926
101284.9926
101284.9926
101284.9924
101284.9924
101284.9924
101284.9924
101284.9925
101284.9925
101284.9926
101284.9927
101284.9927
101284.9929
101284.9929
101284.9929
101284.9932
101284.9932
101284.9935
101284.994
101284.9941
101284.9949
101284.9964
101284.9984
101285.001
101285.004
101285.007
101285.0095
101285.0113
101285.0124
101285.0129
101285.0131
101285.0131
101285.0132
101285.0131
101285.0131
101285.0131
101285.0131
101285.0131
101285.0131
101285.0131
101285.0131
101285.0131
101285.0131
101284.9868
101284.9869
101284.987
101284.9871
101284.9871
101284.9872
101284.9873
101284.9874
101284.9874
101284.9875
101284.9875
101284.9876
101284.9876
101284.9876
101284.9876
101284.9875
101284.9873
101284.987
101284.9866
101284.9862
101284.9858
101284.9854
101284.9849
101284.9847
101284.9846
101284.9845
101284.9845
101284.9846
101284.9846
101284.9847
101284.9846
101284.9848
101284.9848
101284.9851
101284.9852
101284.9852
101284.9855
101284.9855
101284.9855
101284.9856
101284.9859
101284.986
101284.986
101284.986
101284.9863
101284.9863
101284.9864
101284.9864
101284.9867
101284.9867
101284.9867
101284.9867
101284.9871
101284.9871
101284.9871
101284.9872
101284.9876
101284.9877
101284.9877
101284.9877
101284.9882
101284.9883
101284.9883
101284.9883
101284.9888
101284.9888
101284.9889
101284.9888
101284.9892
101284.9892
101284.9893
101284.9892
101284.9895
101284.9895
101284.9896
101284.9895
101284.9897
101284.9897
101284.9898
101284.9897
101284.9899
101284.9899
101284.9901
101284.9899
101284.9902
101284.9902
101284.9903
101284.9902
101284.9904
101284.9904
101284.9905
101284.9904
101284.9904
101284.9906
101284.9908
101284.9906
101284.9907
101284.9908
101284.9909
101284.9908
101284.9908
101284.9909
101284.991
101284.9909
101284.991
101284.991
101284.9911
101284.991
101284.9911
101284.991
101284.9911
101284.991
101284.991
101284.9909
101284.9909
101284.9909
101284.9909
101284.9906
101284.9905
101284.9905
101284.9905
101284.9901
101284.99
101284.99
101284.99
101284.9895
101284.9894
101284.9894
101284.9894
101284.9888
101284.9887
101284.9887
101284.9887
101284.9883
101284.9882
101284.9882
101284.9882
101284.988
101284.9879
101284.9879
101284.988
101284.9881
101284.9881
101284.9881
101284.9882
101284.9882
101284.9884
101284.9885
101284.9885
101284.9888
101284.9887
101284.989
101284.9895
101284.9896
101284.9904
101284.992
101284.994
101284.9965
101284.9995
101285.0025
101285.005
101285.0068
101285.0078
101285.0083
101285.0086
101285.0086
101285.0086
101285.0086
101285.0086
101285.0086
101285.0086
101285.0086
101285.0086
101285.0086
101285.0086
101285.0086
101285.0086
101284.9824
101284.9824
101284.9825
101284.9825
101284.9826
101284.9826
101284.9827
101284.9827
101284.9828
101284.9829
101284.9829
101284.9829
101284.983
101284.983
101284.9829
101284.9828
101284.9826
101284.9823
101284.9819
101284.9815
101284.9811
101284.9807
101284.9802
101284.9799
101284.9798
101284.9797
101284.9797
101284.9799
101284.9798
101284.9799
101284.9798
101284.98
101284.98
101284.9803
101284.9803
101284.9803
101284.9807
101284.9807
101284.9807
101284.9807
101284.9811
101284.9811
101284.9811
101284.9811
101284.9814
101284.9814
101284.9814
101284.9815
101284.9818
101284.9818
101284.9818
101284.9818
101284.9822
101284.9822
101284.9822
101284.9822
101284.9827
101284.9827
101284.9828
101284.9828
101284.9833
101284.9833
101284.9834
101284.9834
101284.9838
101284.9839
101284.9839
101284.9839
101284.9842
101284.9842
101284.9844
101284.9843
101284.9845
101284.9845
101284.9846
101284.9846
101284.9848
101284.9848
101284.9849
101284.9848
101284.985
101284.9849
101284.9851
101284.985
101284.9852
101284.9851
101284.9854
101284.9852
101284.9854
101284.9853
101284.9856
101284.9854
101284.9854
101284.9856
101284.9858
101284.9856
101284.9856
101284.9858
101284.9859
101284.9858
101284.9858
101284.9859
101284.986
101284.9859
101284.9859
101284.986
101284.9861
101284.986
101284.986
101284.986
101284.986
101284.986
101284.986
101284.9859
101284.9859
101284.9858
101284.9858
101284.9855
101284.9855
101284.9855
101284.9854
101284.985
101284.985
101284.9849
101284.9849
101284.9844
101284.9844
101284.9843
101284.9843
101284.9837
101284.9837
101284.9837
101284.9837
101284.9832
101284.9831
101284.9831
101284.9831
101284.9829
101284.9828
101284.9829
101284.9829
101284.983
101284.983
101284.983
101284.9831
101284.9831
101284.9833
101284.9834
101284.9834
101284.9837
101284.9836
101284.9839
101284.9844
101284.9845
101284.9853
101284.9868
101284.9888
101284.9914
101284.9943
101284.9973
101284.9998
101285.0016
101285.0026
101285.0031
101285.0034
101285.0034
101285.0034
101285.0034
101285.0034
101285.0034
101285.0034
101285.0034
101285.0034
101285.0034
101285.0034
101285.0034
101285.0034
101284.9772
101284.9772
101284.9772
101284.9773
101284.9773
101284.9773
101284.9774
101284.9774
101284.9775
101284.9775
101284.9776
101284.9776
101284.9776
101284.9776
101284.9775
101284.9774
101284.9772
101284.9769
101284.9765
101284.9761
101284.9757
101284.9752
101284.9747
101284.9743
101284.9743
101284.9742
101284.9742
101284.9743
101284.9742
101284.9743
101284.9742
101284.9744
101284.9744
101284.9747
101284.9747
101284.9747
101284.9751
101284.9751
101284.9751
101284.9751
101284.9754
101284.9755
101284.9754
101284.9755
101284.9758
101284.9758
101284.9758
101284.9759
101284.9761
101284.9761
101284.9762
101284.9762
101284.9765
101284.9765
101284.9766
101284.9766
101284.977
101284.977
101284.9771
101284.9771
101284.9776
101284.9777
101284.9777
101284.9777
101284.9781
101284.9782
101284.9783
101284.9782
101284.9785
101284.9785
101284.9787
101284.9786
101284.9788
101284.9788
101284.979
101284.9788
101284.9791
101284.979
101284.9792
101284.979
101284.9792
101284.9792
101284.9794
101284.9792
101284.9794
101284.9794
101284.9796
101284.9794
101284.9795
101284.9796
101284.9798
101284.9796
101284.9796
101284.9798
101284.98
101284.9798
101284.9798
101284.98
101284.9802
101284.98
101284.98
101284.9801
101284.9803
101284.9801
101284.9802
101284.9802
101284.9803
101284.9802
101284.9802
101284.9802
101284.9803
101284.9802
101284.9802
101284.98
101284.9801
101284.98
101284.98
101284.9797
101284.9797
101284.9797
101284.9796
101284.9792
101284.9792
101284.9791
101284.9791
101284.9786
101284.9786
101284.9785
101284.9785
101284.9779
101284.9778
101284.9778
101284.9778
101284.9774
101284.9773
101284.9773
101284.9773
101284.9771
101284.977
101284.977
101284.9771
101284.9771
101284.9771
101284.9771
101284.9772
101284.9772
101284.9774
101284.9775
101284.9775
101284.9778
101284.9777
101284.978
101284.9785
101284.9786
101284.9794
101284.9809
101284.9829
101284.9854
101284.9884
101284.9913
101284.9938
101284.9956
101284.9966
101284.9972
101284.9974
101284.9974
101284.9974
101284.9974
101284.9974
101284.9974
101284.9974
101284.9974
101284.9974
101284.9974
101284.9974
101284.9974
101284.9974
101284.9712
101284.9712
101284.9712
101284.9712
101284.9712
101284.9712
101284.9713
101284.9713
101284.9714
101284.9714
101284.9714
101284.9714
101284.9714
101284.9714
101284.9713
101284.9712
101284.9709
101284.9706
101284.9702
101284.9698
101284.9694
101284.9689
101284.9683
101284.968
101284.9679
101284.9678
101284.9677
101284.9679
101284.9678
101284.9679
101284.9678
101284.968
101284.968
101284.9683
101284.9683
101284.9683
101284.9686
101284.9686
101284.9686
101284.9687
101284.9689
101284.969
101284.969
101284.969
101284.9693
101284.9693
101284.9693
101284.9693
101284.9697
101284.9696
101284.9697
101284.9697
101284.97
101284.97
101284.9701
101284.9701
101284.9705
101284.9705
101284.9706
101284.9706
101284.9711
101284.9711
101284.9712
101284.9711
101284.9716
101284.9716
101284.9717
101284.9716
101284.9719
101284.9719
101284.9721
101284.972
101284.9722
101284.9722
101284.9724
101284.9722
101284.9724
101284.9724
101284.9726
101284.9724
101284.9726
101284.9726
101284.9729
101284.9726
101284.9728
101284.9728
101284.9731
101284.9728
101284.9729
101284.973
101284.9732
101284.973
101284.973
101284.9731
101284.9734
101284.9731
101284.9732
101284.9733
101284.9735
101284.9733
101284.9734
101284.9735
101284.9737
101284.9735
101284.9735
101284.9736
101284.9737
101284.9735
101284.9736
101284.9735
101284.9736
101284.9735
101284.9735
101284.9734
101284.9734
101284.9733
101284.9733
101284.973
101284.9731
101284.973
101284.9729
101284.9725
101284.9725
101284.9724
101284.9724
101284.9719
101284.9719
101284.9718
101284.9718
101284.9712
101284.9711
101284.9711
101284.9711
101284.9706
101284.9705
101284.9706
101284.9705
101284.9703
101284.9702
101284.9702
101284.9703
101284.9703
101284.9703
101284.9704
101284.9704
101284.9704
101284.9706
101284.9708
101284.9707
101284.9711
101284.9709
101284.9712
101284.9717
101284.9718
101284.9726
101284.9741
101284.976
101284.9786
101284.9815
101284.9844
101284.9869
101284.9887
101284.9898
101284.9903
101284.9905
101284.9906
101284.9906
101284.9905
101284.9905
101284.9905
101284.9905
101284.9905
101284.9905
101284.9905
101284.9905
101284.9905
101284.9905
101284.9642
101284.9642
101284.9642
101284.9642
101284.9642
101284.9642
101284.9642
101284.9643
101284.9643
101284.9643
101284.9643
101284.9643
101284.9643
101284.9643
101284.9642
101284.964
101284.9637
101284.9634
101284.963
101284.9625
101284.9621
101284.9616
101284.961
101284.9606
101284.9606
101284.9605
101284.9603
101284.9606
101284.9604
101284.9606
101284.9604
101284.9605
101284.9606
101284.9608
101284.9609
101284.9608
101284.9612
101284.9612
101284.9612
101284.9612
101284.9615
101284.9615
101284.9615
101284.9615
101284.9618
101284.9618
101284.9618
101284.9619
101284.9622
101284.9621
101284.9622
101284.9622
101284.9625
101284.9625
101284.9626
101284.9625
101284.963
101284.963
101284.9631
101284.963
101284.9635
101284.9635
101284.9637
101284.9636
101284.964
101284.964
101284.9642
101284.9641
101284.9644
101284.9643
101284.9646
101284.9644
101284.9646
101284.9646
101284.9648
101284.9646
101284.9648
101284.9648
101284.9651
101284.9648
101284.965
101284.965
101284.9653
101284.965
101284.9652
101284.9652
101284.9655
101284.9652
101284.9654
101284.9653
101284.9657
101284.9653
101284.9654
101284.9655
101284.9658
101284.9655
101284.9656
101284.9657
101284.966
101284.9657
101284.9658
101284.9659
101284.9661
101284.9659
101284.9659
101284.9659
101284.9661
101284.9659
101284.9659
101284.9659
101284.966
101284.9658
101284.9659
101284.9657
101284.9658
101284.9656
101284.9656
101284.9653
101284.9654
101284.9653
101284.9652
101284.9647
101284.9648
101284.9647
101284.9647
101284.9641
101284.9642
101284.9641
101284.9641
101284.9634
101284.9634
101284.9634
101284.9633
101284.9629
101284.9628
101284.9628
101284.9628
101284.9626
101284.9625
101284.9625
101284.9626
101284.9626
101284.9626
101284.9626
101284.9627
101284.9627
101284.9628
101284.963
101284.9629
101284.9633
101284.9631
101284.9635
101284.9638
101284.9639
101284.9648
101284.9663
101284.9682
101284.9707
101284.9735
101284.9764
101284.9789
101284.9807
101284.9818
101284.9824
101284.9826
101284.9827
101284.9827
101284.9826
101284.9826
101284.9826
101284.9826
101284.9826
101284.9826
101284.9826
101284.9826
101284.9826
101284.9826
101284.9561
101284.9561
101284.9561
101284.9561
101284.9561
101284.9561
101284.9561
101284.9561
101284.9561
101284.9562
101284.9562
101284.9561
101284.9561
101284.956
101284.9559
101284.9557
101284.9554
101284.955
101284.9546
101284.9541
101284.9536
101284.9532
101284.9526
101284.9521
101284.9521
101284.952
101284.9518
101284.9521
101284.9518
101284.952
101284.9518
101284.952
101284.952
101284.9523
101284.9523
101284.9523
101284.9526
101284.9526
101284.9526
101284.9526
101284.9529
101284.953
101284.9529
101284.953
101284.9532
101284.9532
101284.9532
101284.9533
101284.9535
101284.9535
101284.9536
101284.9536
101284.9539
101284.9538
101284.954
101284.9539
101284.9543
101284.9543
101284.9545
101284.9543
101284.9549
101284.9549
101284.955
101284.9549
101284.9553
101284.9553
101284.9556
101284.9554
101284.9557
101284.9556
101284.9559
101284.9557
101284.9559
101284.9559
101284.9562
101284.9559
101284.9561
101284.956
101284.9564
101284.9561
101284.9563
101284.9562
101284.9566
101284.9563
101284.9564
101284.9564
101284.9568
101284.9564
101284.9565
101284.9566
101284.9569
101284.9566
101284.9567
101284.9567
101284.9571
101284.9567
101284.9568
101284.9569
101284.9572
101284.9569
101284.957
101284.957
101284.9573
101284.957
101284.9571
101284.9571
101284.9573
101284.9571
101284.9571
101284.957
101284.9572
101284.957
101284.9571
101284.9568
101284.957
101284.9568
101284.9568
101284.9565
101284.9566
101284.9564
101284.9564
101284.9559
101284.956
101284.9558
101284.9558
101284.9552
101284.9553
101284.9552
101284.9552
101284.9546
101284.9545
101284.9545
101284.9545
101284.954
101284.9539
101284.9539
101284.9539
101284.9536
101284.9536
101284.9536
101284.9536
101284.9536
101284.9537
101284.9537
101284.9537
101284.9537
101284.9539
101284.9541
101284.954
101284.9544
101284.9542
101284.9545
101284.9548
101284.9549
101284.9558
101284.9572
101284.9591
101284.9616
101284.9644
101284.9672
101284.9697
101284.9716
101284.9727
101284.9733
101284.9735
101284.9736
101284.9736
101284.9735
101284.9735
101284.9735
101284.9735
101284.9735
101284.9734
101284.9734
101284.9734
101284.9734
101284.9734
101284.9468
101284.9468
101284.9468
101284.9468
101284.9467
101284.9467
101284.9468
101284.9468
101284.9467
101284.9467
101284.9467
101284.9467
101284.9466
101284.9465
101284.9463
101284.9461
101284.9457
101284.9453
101284.9449
101284.9444
101284.9439
101284.9434
101284.9428
101284.9423
101284.9422
101284.9422
101284.942
101284.9423
101284.942
101284.9422
101284.9419
101284.9421
101284.9421
101284.9424
101284.9424
101284.9424
101284.9427
101284.9427
101284.9427
101284.9427
101284.943
101284.9431
101284.943
101284.943
101284.9433
101284.9433
101284.9433
101284.9433
101284.9436
101284.9436
101284.9437
101284.9436
101284.9439
101284.9439
101284.9441
101284.9439
101284.9443
101284.9443
101284.9445
101284.9444
101284.9448
101284.9448
101284.9451
101284.9449
101284.9453
101284.9453
101284.9456
101284.9454
101284.9456
101284.9456
101284.9459
101284.9456
101284.9458
101284.9458
101284.9462
101284.9458
101284.946
101284.946
101284.9464
101284.946
101284.9462
101284.9461
101284.9466
101284.9462
101284.9464
101284.9463
101284.9467
101284.9463
101284.9464
101284.9465
101284.9469
101284.9465
101284.9465
101284.9466
101284.947
101284.9466
101284.9467
101284.9468
101284.9472
101284.9468
101284.9469
101284.9469
101284.9472
101284.9469
101284.947
101284.9469
101284.9472
101284.9469
101284.947
101284.9469
101284.9472
101284.9469
101284.9469
101284.9467
101284.9469
101284.9466
101284.9467
101284.9463
101284.9465
101284.9462
101284.9462
101284.9457
101284.9458
101284.9456
101284.9456
101284.945
101284.9451
101284.945
101284.945
101284.9443
101284.9442
101284.9442
101284.9442
101284.9437
101284.9436
101284.9437
101284.9436
101284.9434
101284.9433
101284.9433
101284.9434
101284.9434
101284.9435
101284.9434
101284.9435
101284.9435
101284.9436
101284.9439
101284.9437
101284.9441
101284.9439
101284.9443
101284.9445
101284.9446
101284.9455
101284.9469
101284.9487
101284.9511
101284.9538
101284.9566
101284.9591
101284.961
101284.9622
101284.9628
101284.9631
101284.9631
101284.9631
101284.9631
101284.963
101284.963
101284.963
101284.963
101284.963
101284.963
101284.963
101284.963
101284.963
101284.936
101284.936
101284.936
101284.9359
101284.9359
101284.9359
101284.9359
101284.9359
101284.9359
101284.9359
101284.9358
101284.9357
101284.9356
101284.9355
101284.9352
101284.9349
101284.9346
101284.9341
101284.9336
101284.9331
101284.9326
101284.9321
101284.9314
101284.9309
101284.9308
101284.9309
101284.9306
101284.9309
101284.9305
101284.9308
101284.9305
101284.9307
101284.9307
101284.931
101284.931
101284.931
101284.9313
101284.9313
101284.9313
101284.9313
101284.9315
101284.9317
101284.9315
101284.9316
101284.9318
101284.9318
101284.9318
101284.9319
101284.9321
101284.9321
101284.9323
101284.9321
101284.9324
101284.9324
101284.9326
101284.9325
101284.9328
101284.9328
101284.9331
101284.9329
101284.9333
101284.9333
101284.9336
101284.9334
101284.9338
101284.9338
101284.9341
101284.9338
101284.9341
101284.934
101284.9344
101284.9341
101284.9343
101284.9342
101284.9346
101284.9342
101284.9344
101284.9344
101284.9348
101284.9344
101284.9346
101284.9345
101284.935
101284.9346
101284.9347
101284.9347
101284.9352
101284.9347
101284.9348
101284.9348
101284.9353
101284.9349
101284.9349
101284.935
101284.9355
101284.935
101284.9351
101284.9351
101284.9356
101284.9351
101284.9352
101284.9352
101284.9356
101284.9352
101284.9353
101284.9353
101284.9356
101284.9353
101284.9353
101284.9352
101284.9355
101284.9352
101284.9352
101284.935
101284.9352
101284.9349
101284.9349
101284.9346
101284.9348
101284.9345
101284.9345
101284.934
101284.9341
101284.9339
101284.9339
101284.9333
101284.9334
101284.9332
101284.9332
101284.9326
101284.9325
101284.9325
101284.9325
101284.9319
101284.9318
101284.932
101284.9318
101284.9316
101284.9316
101284.9316
101284.9316
101284.9316
101284.9317
101284.9317
101284.9317
101284.9317
101284.9318
101284.9322
101284.9319
101284.9324
101284.9321
101284.9325
101284.9327
101284.9328
101284.9337
101284.935
101284.9367
101284.939
101284.9416
101284.9443
101284.9468
101284.9487
101284.95
101284.9507
101284.951
101284.9511
101284.9511
101284.951
101284.951
101284.951
101284.9509
101284.9509
101284.9509
101284.9509
101284.9509
101284.9509
101284.9509
101284.9235
101284.9235
101284.9234
101284.9234
101284.9234
101284.9234
101284.9234
101284.9234
101284.9233
101284.9233
101284.9232
101284.9231
101284.9229
101284.9227
101284.9224
101284.922
101284.9216
101284.9212
101284.9206
101284.9201
101284.9195
101284.919
101284.9184
101284.9177
101284.9177
101284.9178
101284.9174
101284.9178
101284.9174
101284.9177
101284.9174
101284.9175
101284.9175
101284.9178
101284.9179
101284.9178
101284.9181
101284.9181
101284.9181
101284.9181
101284.9183
101284.9186
101284.9183
101284.9184
101284.9186
101284.9186
101284.9186
101284.9186
101284.9189
101284.9189
101284.9192
101284.9189
101284.9192
101284.9192
101284.9195
101284.9192
101284.9196
101284.9196
101284.9199
101284.9196
101284.9201
101284.92
101284.9204
101284.9201
101284.9205
101284.9205
101284.9209
101284.9205
101284.9208
101284.9207
101284.9212
101284.9207
101284.9209
101284.9209
101284.9213
101284.9209
101284.9211
101284.9211
101284.9216
101284.9211
101284.9212
101284.9212
101284.9217
101284.9212
101284.9214
101284.9213
101284.9218
101284.9213
101284.9214
101284.9214
101284.922
101284.9214
101284.9215
101284.9216
101284.9221
101284.9216
101284.9217
101284.9217
101284.9222
101284.9217
101284.9218
101284.9218
101284.9223
101284.9218
101284.9219
101284.9218
101284.9223
101284.9218
101284.9219
101284.9218
101284.9222
101284.9217
101284.9218
101284.9215
101284.9218
101284.9215
101284.9215
101284.9211
101284.9214
101284.921
101284.921
101284.9204
101284.9207
101284.9204
101284.9203
101284.9197
101284.9199
101284.9197
101284.9196
101284.919
101284.919
101284.919
101284.9189
101284.9184
101284.9183
101284.9185
101284.9183
101284.9181
101284.9181
101284.918
101284.9181
101284.9181
101284.9182
101284.9181
101284.9182
101284.9182
101284.9183
101284.9187
101284.9183
101284.9189
101284.9185
101284.919
101284.9191
101284.9192
101284.9201
101284.9213
101284.923
101284.9251
101284.9275
101284.9301
101284.9326
101284.9345
101284.9359
101284.9367
101284.9371
101284.9372
101284.9372
101284.9372
101284.9371
101284.9371
101284.937
101284.937
101284.937
101284.937
101284.937
101284.937
101284.937
101284.909
101284.909
101284.9089
101284.9089
101284.9089
101284.9089
101284.9088
101284.9088
101284.9087
101284.9087
101284.9085
101284.9084
101284.9081
101284.9079
101284.9075
101284.9071
101284.9066
101284.9061
101284.9056
101284.905
101284.9044
101284.9038
101284.9032
101284.9025
101284.9025
101284.9026
101284.9022
101284.9026
101284.9022
101284.9026
101284.9022
101284.9024
101284.9024
101284.9026
101284.9027
101284.9026
101284.9029
101284.9029
101284.9029
101284.9029
101284.9031
101284.9034
101284.9031
101284.9032
101284.9034
101284.9034
101284.9034
101284.9034
101284.9037
101284.9037
101284.904
101284.9037
101284.904
101284.904
101284.9043
101284.904
101284.9043
101284.9043
101284.9047
101284.9043
101284.9048
101284.9048
101284.9052
101284.9048
101284.9052
101284.9052
101284.9057
101284.9052
101284.9054
101284.9054
101284.9059
101284.9054
101284.9056
101284.9055
101284.906
101284.9055
101284.9057
101284.9057
101284.9062
101284.9057
101284.9059
101284.9058
101284.9064
101284.9058
101284.906
101284.9059
101284.9065
101284.9059
101284.9061
101284.906
101284.9066
101284.906
101284.9061
101284.9062
101284.9068
101284.9062
101284.9063
101284.9063
101284.9069
101284.9063
101284.9064
101284.9064
101284.9069
101284.9064
101284.9065
101284.9064
101284.9069
101284.9064
101284.9064
101284.9063
101284.9068
101284.9063
101284.9063
101284.906
101284.9064
101284.906
101284.906
101284.9055
101284.9059
101284.9055
101284.9055
101284.9048
101284.9052
101284.9048
101284.9048
101284.9041
101284.9044
101284.9041
101284.9041
101284.9034
101284.9035
101284.9034
101284.9033
101284.9028
101284.9027
101284.903
101284.9027
101284.9025
101284.9025
101284.9025
101284.9025
101284.9025
101284.9027
101284.9026
101284.9027
101284.9027
101284.9027
101284.9032
101284.9028
101284.9034
101284.903
101284.9035
101284.9035
101284.9036
101284.9045
101284.9056
101284.9071
101284.9091
101284.9113
101284.9138
101284.9161
101284.9181
101284.9196
101284.9205
101284.921
101284.9212
101284.9212
101284.9212
101284.9211
101284.9211
101284.9211
101284.921
101284.921
101284.921
101284.921
101284.921
101284.921
101284.8921
101284.8921
101284.8921
101284.8921
101284.892
101284.892
101284.892
101284.8919
101284.8918
101284.8917
101284.8915
101284.8913
101284.891
101284.8907
101284.8903
101284.8898
101284.8893
101284.8887
101284.8881
101284.8875
101284.8869
101284.8863
101284.8857
101284.8849
101284.8849
101284.885
101284.8845
101284.8851
101284.8846
101284.8851
101284.8846
101284.8848
101284.8849
101284.885
101284.8853
101284.8851
101284.8853
101284.8854
101284.8854
101284.8854
101284.8856
101284.886
101284.8856
101284.8856
101284.8858
101284.886
101284.886
101284.8859
101284.8861
101284.8862
101284.8866
101284.8862
101284.8865
101284.8865
101284.8869
101284.8865
101284.8868
101284.8868
101284.8872
101284.8868
101284.8871
101284.8871
101284.8877
101284.8872
101284.8875
101284.8875
101284.8881
101284.8875
101284.8877
101284.8877
101284.8883
101284.8877
101284.8879
101284.8878
101284.8884
101284.8878
101284.888
101284.8879
101284.8886
101284.888
101284.8881
101284.8881
101284.8888
101284.8881
101284.8883
101284.8882
101284.8889
101284.8882
101284.8883
101284.8883
101284.889
101284.8883
101284.8884
101284.8884
101284.8891
101284.8884
101284.8885
101284.8885
101284.8892
101284.8885
101284.8886
101284.8886
101284.8892
101284.8886
101284.8887
101284.8886
101284.8891
101284.8886
101284.8886
101284.8884
101284.889
101284.8884
101284.8884
101284.8881
101284.8887
101284.8881
101284.8881
101284.8876
101284.8881
101284.8876
101284.8876
101284.887
101284.8874
101284.8869
101284.8869
101284.8863
101284.8866
101284.8862
101284.8862
101284.8856
101284.8856
101284.8856
101284.8854
101284.8849
101284.8849
101284.8852
101284.8848
101284.8846
101284.8847
101284.8847
101284.8847
101284.8847
101284.8849
101284.8847
101284.8849
101284.8849
101284.8849
101284.8855
101284.885
101284.8857
101284.8852
101284.8857
101284.8857
101284.8857
101284.8866
101284.8876
101284.8889
101284.8907
101284.8927
101284.895
101284.8972
101284.8991
101284.9007
101284.9018
101284.9024
101284.9027
101284.9028
101284.9028
101284.9027
101284.9027
101284.9027
101284.9027
101284.9026
101284.9026
101284.9026
101284.9026
101284.9026
101284.8725
101284.8725
101284.8725
101284.8724
101284.8724
101284.8724
101284.8723
101284.8722
101284.8721
101284.8719
101284.8717
101284.8714
101284.8711
101284.8707
101284.8703
101284.8698
101284.8692
101284.8686
101284.868
101284.8673
101284.8667
101284.866
101284.8654
101284.8646
101284.8646
101284.8648
101284.8643
101284.8648
101284.8643
101284.8649
101284.8643
101284.8646
101284.8647
101284.8648
101284.8651
101284.8648
101284.8651
101284.8652
101284.8653
101284.8651
101284.8653
101284.8659
101284.8654
101284.8654
101284.8656
101284.8658
101284.8658
101284.8657
101284.8659
101284.866
101284.8664
101284.866
101284.8662
101284.8662
101284.8668
101284.8662
101284.8665
101284.8665
101284.8671
101284.8665
101284.8669
101284.8668
101284.8675
101284.8668
101284.8672
101284.8672
101284.8678
101284.8672
101284.8674
101284.8673
101284.868
101284.8673
101284.8675
101284.8675
101284.8682
101284.8675
101284.8676
101284.8676
101284.8683
101284.8676
101284.8677
101284.8677
101284.8684
101284.8677
101284.8678
101284.8678
101284.8685
101284.8678
101284.8679
101284.8679
101284.8686
101284.8679
101284.868
101284.868
101284.8688
101284.868
101284.8681
101284.8681
101284.8689
101284.8681
101284.8682
101284.8682
101284.8689
101284.8682
101284.8682
101284.8681
101284.8688
101284.8681
101284.8681
101284.8679
101284.8686
101284.8679
101284.8679
101284.8676
101284.8682
101284.8676
101284.8676
101284.8671
101284.8677
101284.8671
101284.867
101284.8664
101284.867
101284.8664
101284.8663
101284.8657
101284.8662
101284.8657
101284.8656
101284.865
101284.8651
101284.8651
101284.8649
101284.8644
101284.8644
101284.8648
101284.8643
101284.8641
101284.8643
101284.8642
101284.8642
101284.8643
101284.8646
101284.8643
101284.8645
101284.8645
101284.8645