/*--------------------------------*- C++ -*----------------------------------*\
| =========                 |                                                 |
| \\      /  F ield         | OpenFOAM: The Open Source CFD Toolbox           |
|  \\    /   O peration     | Version:  2206                                  |
|   \\  /    A nd           | Website:  www.openfoam.com                      |
|    \\/     M anipulation  |                                                 |
\*---------------------------------------------------------------------------*/
FoamFile
{
    version     2.0;
    format      ascii;
    arch        "LSB;label=32;scalar=64";
    class       volScalarField;
    location    "0";
    object      pMean;
}
// * * * * * * * * * * * * * * * * * * * * * * * * * * * * * * * * * * * * * //

dimensions      [1 -1 -2 0 0 0 0];

internalField   nonuniform List<scalar> 
31329
(
101328.499
101328.4989
101328.4989
101328.499
101328.4991
101328.4992
101328.4993
101328.4994
101328.4995
101328.4997
101328.4998
101328.4999
101328.4999
101328.4999
101328.4998
101328.4998
101328.4996
101328.4996
101328.4996
101328.4997
101328.4996
101328.4997
101328.4986
101328.499
101328.499
101328.499
101328.4997
101328.4999
101328.5001
101328.4997
101328.5
101328.5
101328.5
101328.5007
101328.5003
101328.5005
101328.5011
101328.5008
101328.5008
101328.5012
101328.5014
101328.5011
101328.5013
101328.5017
101328.5019
101328.5016
101328.5017
101328.502
101328.5024
101328.5021
101328.502
101328.5023
101328.5029
101328.5026
101328.5024
101328.5027
101328.5032
101328.503
101328.5028
101328.5031
101328.5036
101328.5033
101328.5031
101328.5034
101328.504
101328.5037
101328.5035
101328.5038
101328.5043
101328.504
101328.5038
101328.5041
101328.5046
101328.5043
101328.5042
101328.5044
101328.5049
101328.5046
101328.5046
101328.5047
101328.5052
101328.5049
101328.5052
101328.505
101328.5055
101328.5052
101328.5061
101328.5052
101328.5058
101328.5055
101328.5064
101328.5055
101328.5059
101328.5057
101328.506
101328.5057
101328.5061
101328.5059
101328.5059
101328.5059
101328.5063
101328.5061
101328.506
101328.5061
101328.5064
101328.5061
101328.5059
101328.5061
101328.5064
101328.506
101328.5058
101328.5059
101328.5062
101328.5058
101328.5055
101328.5057
101328.506
101328.5057
101328.5053
101328.5055
101328.5059
101328.5056
101328.5052
101328.5054
101328.5057
101328.5053
101328.5049
101328.5051
101328.5054
101328.505
101328.5046
101328.5046
101328.5049
101328.5045
101328.5041
101328.5039
101328.5042
101328.5038
101328.5034
101328.5034
101328.5037
101328.5029
101328.5027
101328.5031
101328.5023
101328.5023
101328.5023
101328.502
101328.5024
101328.5023
101328.5025
101328.5021
101328.5032
101328.5035
101328.5044
101328.5077
101328.5109
101328.5144
101328.5179
101328.5208
101328.5227
101328.5237
101328.5241
101328.5243
101328.5243
101328.5243
101328.5243
101328.5245
101328.5246
101328.5246
101328.5246
101328.5246
101328.5246
101328.5246
101328.5246
101328.5246
101328.5246
101328.4954
101328.4955
101328.4955
101328.4956
101328.4956
101328.4957
101328.4958
101328.4959
101328.496
101328.4961
101328.4963
101328.4964
101328.4964
101328.4964
101328.4964
101328.4963
101328.4963
101328.4963
101328.4963
101328.4963
101328.4964
101328.4965
101328.4965
101328.4966
101328.4966
101328.4968
101328.4971
101328.4973
101328.4974
101328.4975
101328.4975
101328.4977
101328.4977
101328.4981
101328.4981
101328.4981
101328.4985
101328.4985
101328.4986
101328.4986
101328.499
101328.499
101328.499
101328.4991
101328.4994
101328.4994
101328.4995
101328.4995
101328.4998
101328.4998
101328.4999
101328.4999
101328.5002
101328.5002
101328.5002
101328.5003
101328.5006
101328.5006
101328.5006
101328.5006
101328.5009
101328.5009
101328.5009
101328.501
101328.5013
101328.5013
101328.5014
101328.5013
101328.5016
101328.5016
101328.5017
101328.5016
101328.5019
101328.5019
101328.502
101328.5019
101328.5022
101328.5022
101328.5023
101328.5022
101328.5025
101328.5025
101328.5027
101328.5025
101328.5028
101328.5028
101328.5029
101328.5028
101328.5028
101328.503
101328.5032
101328.5031
101328.5031
101328.5033
101328.5034
101328.5033
101328.5034
101328.5035
101328.5036
101328.5035
101328.5035
101328.5037
101328.5037
101328.5037
101328.5037
101328.5037
101328.5037
101328.5036
101328.5037
101328.5035
101328.5036
101328.5035
101328.5035
101328.5033
101328.5033
101328.5033
101328.5033
101328.5032
101328.5031
101328.5031
101328.5032
101328.503
101328.503
101328.503
101328.503
101328.5028
101328.5028
101328.5027
101328.5027
101328.5024
101328.5023
101328.5023
101328.5023
101328.5018
101328.5017
101328.5017
101328.5017
101328.5011
101328.5011
101328.501
101328.501
101328.5004
101328.5004
101328.5004
101328.4999
101328.4999
101328.4996
101328.4996
101328.4996
101328.4996
101328.4996
101328.4998
101328.5005
101328.5007
101328.502
101328.5044
101328.5075
101328.511
101328.5145
101328.5173
101328.5191
101328.52
101328.5204
101328.5206
101328.5206
101328.5206
101328.5206
101328.5206
101328.5206
101328.5206
101328.5207
101328.5207
101328.5207
101328.5207
101328.5207
101328.5207
101328.5207
101328.4915
101328.4915
101328.4916
101328.4916
101328.4917
101328.4917
101328.4918
101328.4919
101328.492
101328.4921
101328.4922
101328.4923
101328.4923
101328.4923
101328.4923
101328.4923
101328.4923
101328.4922
101328.4922
101328.4923
101328.4923
101328.4924
101328.4923
101328.4924
101328.4925
101328.4927
101328.4929
101328.4931
101328.4932
101328.4933
101328.4933
101328.4935
101328.4935
101328.4939
101328.4939
101328.4939
101328.4943
101328.4943
101328.4943
101328.4944
101328.4947
101328.4948
101328.4948
101328.4948
101328.4952
101328.4952
101328.4952
101328.4952
101328.4956
101328.4956
101328.4956
101328.4956
101328.4959
101328.4959
101328.4959
101328.496
101328.4963
101328.4963
101328.4963
101328.4963
101328.4966
101328.4966
101328.4967
101328.4967
101328.497
101328.497
101328.497
101328.497
101328.4973
101328.4973
101328.4974
101328.4973
101328.4976
101328.4976
101328.4977
101328.4976
101328.4979
101328.4979
101328.498
101328.4979
101328.4982
101328.4982
101328.4984
101328.4982
101328.4984
101328.4984
101328.4986
101328.4984
101328.4987
101328.4987
101328.4989
101328.4987
101328.4988
101328.4989
101328.4991
101328.4989
101328.499
101328.4991
101328.4993
101328.4991
101328.4992
101328.4993
101328.4994
101328.4993
101328.4993
101328.4993
101328.4994
101328.4993
101328.4993
101328.4991
101328.4992
101328.4991
101328.4991
101328.4989
101328.499
101328.4989
101328.4989
101328.4988
101328.4987
101328.4987
101328.4988
101328.4986
101328.4986
101328.4986
101328.4986
101328.4984
101328.4984
101328.4983
101328.4983
101328.498
101328.4979
101328.4979
101328.4979
101328.4974
101328.4973
101328.4973
101328.4973
101328.4967
101328.4966
101328.4966
101328.4966
101328.496
101328.496
101328.4959
101328.4955
101328.4955
101328.4952
101328.4952
101328.4951
101328.4952
101328.4951
101328.4954
101328.4961
101328.4962
101328.4976
101328.5
101328.503
101328.5065
101328.51
101328.5128
101328.5146
101328.5155
101328.5159
101328.516
101328.5161
101328.5161
101328.5161
101328.5161
101328.5161
101328.5161
101328.5161
101328.5161
101328.5162
101328.5162
101328.5162
101328.5162
101328.5162
101328.487
101328.487
101328.487
101328.487
101328.4871
101328.4871
101328.4872
101328.4872
101328.4873
101328.4874
101328.4875
101328.4876
101328.4877
101328.4877
101328.4876
101328.4876
101328.4876
101328.4876
101328.4875
101328.4875
101328.4876
101328.4876
101328.4876
101328.4877
101328.4877
101328.4879
101328.4881
101328.4883
101328.4884
101328.4885
101328.4884
101328.4887
101328.4887
101328.4891
101328.4891
101328.4891
101328.4895
101328.4895
101328.4895
101328.4895
101328.4899
101328.4899
101328.4899
101328.4899
101328.4903
101328.4903
101328.4903
101328.4903
101328.4907
101328.4907
101328.4907
101328.4907
101328.491
101328.491
101328.491
101328.491
101328.4913
101328.4914
101328.4914
101328.4914
101328.4917
101328.4917
101328.4917
101328.4917
101328.492
101328.492
101328.4921
101328.492
101328.4923
101328.4923
101328.4924
101328.4923
101328.4926
101328.4926
101328.4927
101328.4926
101328.4929
101328.4929
101328.4931
101328.4929
101328.4932
101328.4932
101328.4934
101328.4932
101328.4934
101328.4934
101328.4936
101328.4934
101328.4937
101328.4937
101328.4939
101328.4937
101328.4938
101328.4939
101328.4941
101328.4939
101328.494
101328.4941
101328.4943
101328.4941
101328.4942
101328.4943
101328.4944
101328.4943
101328.4943
101328.4943
101328.4944
101328.4943
101328.4943
101328.4941
101328.4941
101328.4941
101328.4941
101328.4939
101328.4939
101328.4939
101328.4939
101328.4937
101328.4937
101328.4937
101328.4937
101328.4936
101328.4936
101328.4936
101328.4936
101328.4933
101328.4933
101328.4933
101328.4933
101328.4929
101328.4929
101328.4928
101328.4928
101328.4923
101328.4922
101328.4922
101328.4922
101328.4916
101328.4915
101328.4915
101328.4915
101328.4909
101328.4909
101328.4908
101328.4904
101328.4903
101328.4901
101328.4901
101328.49
101328.4901
101328.49
101328.4903
101328.4909
101328.4911
101328.4924
101328.4948
101328.4978
101328.5013
101328.5048
101328.5076
101328.5094
101328.5103
101328.5107
101328.5108
101328.5109
101328.5109
101328.5109
101328.5109
101328.5109
101328.5109
101328.5109
101328.5109
101328.5109
101328.5109
101328.5109
101328.5109
101328.5109
101328.4817
101328.4817
101328.4817
101328.4817
101328.4817
101328.4818
101328.4818
101328.4819
101328.4819
101328.482
101328.4821
101328.4822
101328.4822
101328.4822
101328.4822
101328.4822
101328.4822
101328.4821
101328.4821
101328.4821
101328.4821
101328.4822
101328.4821
101328.4822
101328.4822
101328.4824
101328.4826
101328.4828
101328.4828
101328.483
101328.4829
101328.4831
101328.4832
101328.4835
101328.4835
101328.4835
101328.4839
101328.4839
101328.4839
101328.4839
101328.4842
101328.4843
101328.4842
101328.4843
101328.4846
101328.4846
101328.4846
101328.4847
101328.485
101328.485
101328.4851
101328.4851
101328.4853
101328.4853
101328.4854
101328.4854
101328.4857
101328.4857
101328.4857
101328.4857
101328.486
101328.486
101328.4861
101328.486
101328.4863
101328.4863
101328.4864
101328.4863
101328.4866
101328.4866
101328.4867
101328.4866
101328.4869
101328.4869
101328.487
101328.4869
101328.4871
101328.4871
101328.4873
101328.4872
101328.4874
101328.4874
101328.4877
101328.4875
101328.4877
101328.4876
101328.4879
101328.4877
101328.4877
101328.4879
101328.4882
101328.4879
101328.488
101328.4881
101328.4884
101328.4882
101328.4882
101328.4883
101328.4885
101328.4883
101328.4884
101328.4885
101328.4886
101328.4885
101328.4885
101328.4885
101328.4886
101328.4885
101328.4885
101328.4883
101328.4884
101328.4883
101328.4883
101328.4881
101328.4881
101328.4881
101328.4881
101328.4879
101328.4879
101328.4879
101328.4879
101328.4877
101328.4878
101328.4877
101328.4877
101328.4875
101328.4875
101328.4874
101328.4874
101328.4871
101328.487
101328.487
101328.487
101328.4864
101328.4864
101328.4864
101328.4863
101328.4857
101328.4856
101328.4856
101328.4856
101328.485
101328.485
101328.485
101328.4845
101328.4845
101328.4842
101328.4842
101328.4841
101328.4842
101328.4841
101328.4844
101328.485
101328.4852
101328.4865
101328.4889
101328.4919
101328.4954
101328.4988
101328.5016
101328.5034
101328.5043
101328.5047
101328.5049
101328.5049
101328.5049
101328.5049
101328.5049
101328.5049
101328.5049
101328.505
101328.505
101328.505
101328.505
101328.505
101328.505
101328.505
101328.4756
101328.4756
101328.4756
101328.4756
101328.4756
101328.4756
101328.4756
101328.4757
101328.4757
101328.4758
101328.4759
101328.4759
101328.476
101328.476
101328.476
101328.4759
101328.4759
101328.4759
101328.4759
101328.4759
101328.4759
101328.4759
101328.4758
101328.4758
101328.4759
101328.4761
101328.4762
101328.4765
101328.4765
101328.4766
101328.4765
101328.4767
101328.4767
101328.477
101328.477
101328.477
101328.4774
101328.4774
101328.4774
101328.4775
101328.4777
101328.4778
101328.4778
101328.4778
101328.4781
101328.4781
101328.4781
101328.4782
101328.4785
101328.4785
101328.4786
101328.4785
101328.4788
101328.4788
101328.4789
101328.4788
101328.4791
101328.4791
101328.4792
101328.4791
101328.4794
101328.4794
101328.4795
101328.4795
101328.4797
101328.4797
101328.4799
101328.4798
101328.48
101328.48
101328.4802
101328.4801
101328.4803
101328.4803
101328.4805
101328.4803
101328.4806
101328.4805
101328.4808
101328.4806
101328.4808
101328.4808
101328.4811
101328.4808
101328.4811
101328.481
101328.4813
101328.4811
101328.4811
101328.4813
101328.4816
101328.4813
101328.4814
101328.4815
101328.4818
101328.4815
101328.4816
101328.4817
101328.4819
101328.4817
101328.4818
101328.4818
101328.482
101328.4818
101328.4819
101328.4818
101328.482
101328.4818
101328.4818
101328.4816
101328.4817
101328.4816
101328.4816
101328.4814
101328.4815
101328.4814
101328.4814
101328.4812
101328.4813
101328.4812
101328.4812
101328.481
101328.4811
101328.481
101328.481
101328.4808
101328.4808
101328.4807
101328.4807
101328.4803
101328.4803
101328.4803
101328.4803
101328.4797
101328.4796
101328.4797
101328.4796
101328.479
101328.4789
101328.4789
101328.4789
101328.4782
101328.4782
101328.4782
101328.4777
101328.4777
101328.4774
101328.4775
101328.4774
101328.4775
101328.4773
101328.4776
101328.4782
101328.4783
101328.4797
101328.4821
101328.4851
101328.4885
101328.4919
101328.4946
101328.4965
101328.4974
101328.4978
101328.498
101328.498
101328.4981
101328.4981
101328.4981
101328.4981
101328.4981
101328.4981
101328.4981
101328.4981
101328.4981
101328.4981
101328.4981
101328.4981
101328.4685
101328.4685
101328.4685
101328.4685
101328.4685
101328.4685
101328.4685
101328.4685
101328.4685
101328.4686
101328.4687
101328.4687
101328.4687
101328.4688
101328.4687
101328.4687
101328.4687
101328.4687
101328.4687
101328.4686
101328.4686
101328.4686
101328.4685
101328.4685
101328.4685
101328.4688
101328.4689
101328.4691
101328.4691
101328.4693
101328.4691
101328.4693
101328.4693
101328.4696
101328.4696
101328.4696
101328.47
101328.47
101328.47
101328.47
101328.4703
101328.4703
101328.4703
101328.4704
101328.4707
101328.4707
101328.4707
101328.4707
101328.471
101328.471
101328.4711
101328.471
101328.4713
101328.4713
101328.4714
101328.4713
101328.4716
101328.4716
101328.4717
101328.4716
101328.4719
101328.4719
101328.472
101328.4719
101328.4722
101328.4722
101328.4723
101328.4722
101328.4725
101328.4724
101328.4727
101328.4725
101328.4727
101328.4727
101328.4729
101328.4727
101328.473
101328.4729
101328.4732
101328.473
101328.4732
101328.4732
101328.4735
101328.4732
101328.4734
101328.4734
101328.4738
101328.4734
101328.4737
101328.4737
101328.474
101328.4737
101328.4738
101328.4739
101328.4742
101328.4739
101328.474
101328.4741
101328.4743
101328.4741
101328.4741
101328.4742
101328.4744
101328.4742
101328.4742
101328.4742
101328.4744
101328.4741
101328.4742
101328.474
101328.4741
101328.4739
101328.474
101328.4737
101328.4738
101328.4737
101328.4737
101328.4735
101328.4736
101328.4735
101328.4735
101328.4733
101328.4734
101328.4733
101328.4733
101328.473
101328.4731
101328.473
101328.473
101328.4726
101328.4726
101328.4725
101328.4725
101328.472
101328.4719
101328.4719
101328.4718
101328.4713
101328.4712
101328.4711
101328.4711
101328.4705
101328.4705
101328.4704
101328.4699
101328.4699
101328.4696
101328.4697
101328.4696
101328.4697
101328.4695
101328.4698
101328.4703
101328.4705
101328.4719
101328.4742
101328.4771
101328.4805
101328.4839
101328.4867
101328.4885
101328.4895
101328.4899
101328.4901
101328.4901
101328.4902
101328.4902
101328.4902
101328.4902
101328.4902
101328.4902
101328.4902
101328.4902
101328.4902
101328.4902
101328.4902
101328.4902
101328.4603
101328.4603
101328.4603
101328.4602
101328.4602
101328.4602
101328.4602
101328.4602
101328.4602
101328.4603
101328.4603
101328.4603
101328.4604
101328.4604
101328.4604
101328.4604
101328.4603
101328.4603
101328.4603
101328.4603
101328.4603
101328.4603
101328.4601
101328.4601
101328.4601
101328.4603
101328.4604
101328.4607
101328.4606
101328.4608
101328.4606
101328.4608
101328.4608
101328.4611
101328.4611
101328.4611
101328.4614
101328.4614
101328.4614
101328.4614
101328.4617
101328.4618
101328.4617
101328.4618
101328.462
101328.462
101328.462
101328.4621
101328.4623
101328.4623
101328.4624
101328.4624
101328.4627
101328.4626
101328.4628
101328.4627
101328.4629
101328.4629
101328.4631
101328.4629
101328.4632
101328.4632
101328.4634
101328.4632
101328.4635
101328.4635
101328.4637
101328.4635
101328.4637
101328.4637
101328.464
101328.4638
101328.464
101328.4639
101328.4642
101328.464
101328.4642
101328.4642
101328.4646
101328.4642
101328.4645
101328.4644
101328.4648
101328.4645
101328.4647
101328.4647
101328.465
101328.4647
101328.4648
101328.4649
101328.4652
101328.4649
101328.465
101328.4651
101328.4654
101328.4651
101328.4652
101328.4652
101328.4656
101328.4652
101328.4653
101328.4653
101328.4656
101328.4653
101328.4654
101328.4653
101328.4656
101328.4653
101328.4654
101328.4652
101328.4654
101328.4651
101328.4651
101328.4649
101328.465
101328.4648
101328.4649
101328.4647
101328.4648
101328.4646
101328.4647
101328.4645
101328.4646
101328.4644
101328.4644
101328.4642
101328.4643
101328.4641
101328.4641
101328.4637
101328.4636
101328.4636
101328.4636
101328.463
101328.4629
101328.463
101328.4629
101328.4623
101328.4622
101328.4622
101328.4622
101328.4615
101328.4616
101328.4615
101328.4609
101328.4609
101328.4606
101328.4608
101328.4606
101328.4608
101328.4606
101328.4609
101328.4613
101328.4615
101328.4629
101328.4652
101328.468
101328.4713
101328.4747
101328.4774
101328.4793
101328.4804
101328.4808
101328.481
101328.4811
101328.4811
101328.4811
101328.4811
101328.4811
101328.4811
101328.4811
101328.4811
101328.4811
101328.4811
101328.4811
101328.4811
101328.4811
101328.4508
101328.4507
101328.4507
101328.4507
101328.4507
101328.4506
101328.4506
101328.4506
101328.4506
101328.4506
101328.4507
101328.4507
101328.4507
101328.4507
101328.4507
101328.4507
101328.4507
101328.4507
101328.4507
101328.4506
101328.4506
101328.4506
101328.4504
101328.4503
101328.4503
101328.4506
101328.4506
101328.4509
101328.4507
101328.451
101328.4507
101328.4509
101328.4509
101328.4512
101328.4513
101328.4512
101328.4515
101328.4515
101328.4515
101328.4515
101328.4518
101328.4519
101328.4518
101328.4518
101328.4521
101328.4521
101328.4521
101328.4521
101328.4524
101328.4524
101328.4525
101328.4524
101328.4527
101328.4526
101328.4528
101328.4527
101328.4529
101328.4529
101328.4531
101328.4529
101328.4532
101328.4532
101328.4534
101328.4532
101328.4535
101328.4534
101328.4537
101328.4535
101328.4537
101328.4537
101328.454
101328.4537
101328.4539
101328.4539
101328.4542
101328.4539
101328.4542
101328.4541
101328.4545
101328.4542
101328.4544
101328.4544
101328.4548
101328.4544
101328.4546
101328.4546
101328.455
101328.4546
101328.4547
101328.4548
101328.4552
101328.4548
101328.4549
101328.455
101328.4554
101328.455
101328.455
101328.4551
101328.4555
101328.4551
101328.4552
101328.4552
101328.4555
101328.4552
101328.4552
101328.4552
101328.4555
101328.4552
101328.4552
101328.455
101328.4552
101328.4549
101328.455
101328.4547
101328.4549
101328.4547
101328.4547
101328.4545
101328.4547
101328.4545
101328.4545
101328.4543
101328.4544
101328.4542
101328.4543
101328.454
101328.4541
101328.4539
101328.4539
101328.4535
101328.4534
101328.4534
101328.4534
101328.4528
101328.4527
101328.4528
101328.4526
101328.452
101328.4519
101328.4519
101328.4519
101328.4512
101328.4513
101328.4512
101328.4507
101328.4507
101328.4503
101328.4506
101328.4503
101328.4505
101328.4502
101328.4506
101328.451
101328.4512
101328.4526
101328.4547
101328.4575
101328.4607
101328.464
101328.4668
101328.4687
101328.4698
101328.4704
101328.4706
101328.4706
101328.4706
101328.4706
101328.4706
101328.4706
101328.4706
101328.4706
101328.4706
101328.4706
101328.4706
101328.4706
101328.4706
101328.4706
101328.4397
101328.4397
101328.4396
101328.4396
101328.4396
101328.4395
101328.4395
101328.4395
101328.4395
101328.4395
101328.4395
101328.4395
101328.4395
101328.4395
101328.4395
101328.4395
101328.4395
101328.4395
101328.4395
101328.4395
101328.4395
101328.4394
101328.4393
101328.4391
101328.4391
101328.4394
101328.4392
101328.4397
101328.4394
101328.4397
101328.4394
101328.4396
101328.4396
101328.4398
101328.4399
101328.4398
101328.4401
101328.4401
101328.4401
101328.4401
101328.4403
101328.4405
101328.4403
101328.4404
101328.4406
101328.4406
101328.4406
101328.4407
101328.4409
101328.4409
101328.4411
101328.4409
101328.4412
101328.4411
101328.4414
101328.4412
101328.4414
101328.4414
101328.4417
101328.4414
101328.4417
101328.4416
101328.4419
101328.4417
101328.4419
101328.4419
101328.4422
101328.4419
101328.4422
101328.4421
101328.4425
101328.4421
101328.4424
101328.4423
101328.4427
101328.4423
101328.4426
101328.4425
101328.443
101328.4426
101328.4428
101328.4427
101328.4432
101328.4428
101328.443
101328.4429
101328.4434
101328.443
101328.443
101328.4431
101328.4436
101328.4431
101328.4432
101328.4433
101328.4438
101328.4433
101328.4434
101328.4434
101328.4439
101328.4434
101328.4435
101328.4435
101328.4439
101328.4435
101328.4436
101328.4435
101328.4439
101328.4435
101328.4435
101328.4433
101328.4436
101328.4433
101328.4433
101328.443
101328.4433
101328.443
101328.443
101328.4428
101328.443
101328.4427
101328.4428
101328.4426
101328.4428
101328.4425
101328.4426
101328.4422
101328.4424
101328.4422
101328.4422
101328.4417
101328.4416
101328.4416
101328.4416
101328.441
101328.4409
101328.4411
101328.4409
101328.4402
101328.4402
101328.4401
101328.4401
101328.4394
101328.4395
101328.4394
101328.4388
101328.4388
101328.4385
101328.4388
101328.4385
101328.4387
101328.4384
101328.4388
101328.4391
101328.4393
101328.4407
101328.4427
101328.4454
101328.4485
101328.4516
101328.4544
101328.4564
101328.4576
101328.4583
101328.4585
101328.4586
101328.4586
101328.4586
101328.4586
101328.4586
101328.4586
101328.4586
101328.4586
101328.4586
101328.4586
101328.4586
101328.4586
101328.4586
101328.4268
101328.4268
101328.4268
101328.4268
101328.4267
101328.4267
101328.4267
101328.4266
101328.4266
101328.4266
101328.4266
101328.4266
101328.4266
101328.4266
101328.4266
101328.4266
101328.4266
101328.4266
101328.4266
101328.4266
101328.4265
101328.4265
101328.4263
101328.4261
101328.4261
101328.4264
101328.4262
101328.4266
101328.4263
101328.4267
101328.4263
101328.4265
101328.4265
101328.4267
101328.4268
101328.4267
101328.4269
101328.4269
101328.4269
101328.4269
101328.4271
101328.4274
101328.4271
101328.4272
101328.4274
101328.4274
101328.4274
101328.4274
101328.4277
101328.4277
101328.4279
101328.4277
101328.4279
101328.4279
101328.4282
101328.4279
101328.4282
101328.4282
101328.4285
101328.4282
101328.4284
101328.4284
101328.4287
101328.4284
101328.4286
101328.4286
101328.429
101328.4286
101328.4288
101328.4288
101328.4292
101328.4288
101328.429
101328.429
101328.4294
101328.429
101328.4292
101328.4292
101328.4297
101328.4292
101328.4294
101328.4294
101328.4299
101328.4294
101328.4296
101328.4296
101328.4301
101328.4296
101328.4297
101328.4297
101328.4303
101328.4297
101328.4298
101328.4299
101328.4304
101328.4299
101328.43
101328.43
101328.4305
101328.43
101328.4301
101328.4301
101328.4305
101328.4301
101328.4301
101328.4301
101328.4305
101328.4301
101328.4301
101328.4299
101328.4302
101328.4298
101328.4299
101328.4296
101328.4299
101328.4296
101328.4296
101328.4293
101328.4296
101328.4293
101328.4293
101328.429
101328.4293
101328.429
101328.429
101328.4287
101328.4289
101328.4286
101328.4286
101328.4281
101328.4281
101328.4281
101328.428
101328.4274
101328.4273
101328.4276
101328.4273
101328.4267
101328.4266
101328.4266
101328.4265
101328.4258
101328.4259
101328.4258
101328.4253
101328.4253
101328.4249
101328.4253
101328.4249
101328.4252
101328.4248
101328.4252
101328.4255
101328.4256
101328.427
101328.4289
101328.4314
101328.4344
101328.4374
101328.4401
101328.4422
101328.4435
101328.4443
101328.4447
101328.4448
101328.4448
101328.4448
101328.4448
101328.4447
101328.4447
101328.4447
101328.4447
101328.4447
101328.4447
101328.4447
101328.4447
101328.4447
101328.412
101328.412
101328.412
101328.4119
101328.4119
101328.4119
101328.4118
101328.4118
101328.4118
101328.4117
101328.4117
101328.4117
101328.4117
101328.4117
101328.4117
101328.4117
101328.4117
101328.4117
101328.4117
101328.4116
101328.4116
101328.4116
101328.4114
101328.4111
101328.4111
101328.4114
101328.4111
101328.4116
101328.4112
101328.4117
101328.4112
101328.4114
101328.4114
101328.4115
101328.4117
101328.4115
101328.4117
101328.4118
101328.4118
101328.4118
101328.4119
101328.4122
101328.4119
101328.412
101328.4122
101328.4122
101328.4122
101328.4122
101328.4124
101328.4124
101328.4127
101328.4124
101328.4126
101328.4126
101328.413
101328.4126
101328.4129
101328.4129
101328.4133
101328.4129
101328.4131
101328.4131
101328.4135
101328.4131
101328.4133
101328.4133
101328.4138
101328.4133
101328.4135
101328.4135
101328.414
101328.4135
101328.4137
101328.4136
101328.4141
101328.4136
101328.4138
101328.4138
101328.4144
101328.4138
101328.414
101328.414
101328.4146
101328.414
101328.4142
101328.4142
101328.4148
101328.4142
101328.4144
101328.4143
101328.4149
101328.4143
101328.4144
101328.4145
101328.4151
101328.4145
101328.4146
101328.4146
101328.4152
101328.4146
101328.4147
101328.4146
101328.4151
101328.4146
101328.4147
101328.4146
101328.4151
101328.4146
101328.4146
101328.4144
101328.4149
101328.4144
101328.4144
101328.4141
101328.4145
101328.4141
101328.4141
101328.4138
101328.4142
101328.4138
101328.4138
101328.4135
101328.4139
101328.4135
101328.4135
101328.4131
101328.4134
101328.4131
101328.4131
101328.4126
101328.4126
101328.4126
101328.4124
101328.4118
101328.4118
101328.4121
101328.4117
101328.411
101328.411
101328.411
101328.4109
101328.4102
101328.4104
101328.4102
101328.4097
101328.4097
101328.4093
101328.4098
101328.4093
101328.4097
101328.4092
101328.4097
101328.4099
101328.41
101328.4113
101328.4131
101328.4154
101328.4181
101328.4209
101328.4235
101328.4257
101328.4272
101328.4281
101328.4286
101328.4288
101328.4289
101328.4289
101328.4289
101328.4288
101328.4288
101328.4288
101328.4288
101328.4288
101328.4288
101328.4288
101328.4288
101328.4288
101328.3948
101328.3948
101328.3948
101328.3948
101328.3948
101328.3947
101328.3947
101328.3947
101328.3946
101328.3946
101328.3946
101328.3945
101328.3945
101328.3945
101328.3944
101328.3944
101328.3944
101328.3944
101328.3944
101328.3944
101328.3943
101328.3943
101328.3941
101328.3937
101328.3937
101328.3941
101328.3937
101328.3943
101328.3939
101328.3943
101328.3938
101328.394
101328.394
101328.3941
101328.3943
101328.3941
101328.3943
101328.3943
101328.3944
101328.3943
101328.3944
101328.3948
101328.3944
101328.3945
101328.3946
101328.3948
101328.3948
101328.3947
101328.3949
101328.3949
101328.3953
101328.3949
101328.395
101328.395
101328.3955
101328.395
101328.3953
101328.3953
101328.3957
101328.3953
101328.3955
101328.3954
101328.396
101328.3955
101328.3957
101328.3956
101328.3962
101328.3956
101328.3958
101328.3958
101328.3964
101328.3958
101328.396
101328.3959
101328.3965
101328.3959
101328.3961
101328.3961
101328.3968
101328.3961
101328.3963
101328.3962
101328.3969
101328.3963
101328.3965
101328.3964
101328.3971
101328.3964
101328.3965
101328.3965
101328.3972
101328.3966
101328.3967
101328.3967
101328.3974
101328.3967
101328.3968
101328.3968
101328.3975
101328.3968
101328.3969
101328.3968
101328.3974
101328.3968
101328.3969
101328.3968
101328.3974
101328.3968
101328.3968
101328.3966
101328.3971
101328.3965
101328.3966
101328.3963
101328.3968
101328.3963
101328.3963
101328.396
101328.3965
101328.396
101328.396
101328.3957
101328.3961
101328.3957
101328.3957
101328.3953
101328.3957
101328.3952
101328.3952
101328.3947
101328.3947
101328.3947
101328.3946
101328.3939
101328.3938
101328.3942
101328.3938
101328.3931
101328.3931
101328.393
101328.3929
101328.3923
101328.3925
101328.3923
101328.3919
101328.3918
101328.3914
101328.3919
101328.3914
101328.3918
101328.3913
101328.3918
101328.3919
101328.392
101328.3933
101328.3949
101328.397
101328.3994
101328.402
101328.4045
101328.4066
101328.4083
101328.4094
101328.4101
101328.4104
101328.4105
101328.4106
101328.4105
101328.4105
101328.4105
101328.4105
101328.4105
101328.4105
101328.4105
101328.4105
101328.4105
101328.4105
101328.375
101328.375
101328.375
101328.375
101328.375
101328.375
101328.3749
101328.3749
101328.3748
101328.3748
101328.3747
101328.3747
101328.3747
101328.3746
101328.3746
101328.3745
101328.3745
101328.3745
101328.3744
101328.3744
101328.3744
101328.3743
101328.3742
101328.3737
101328.3737
101328.3741
101328.3737
101328.3743
101328.3738
101328.3743
101328.3737
101328.3739
101328.374
101328.3739
101328.3742
101328.374
101328.3741
101328.3742
101328.3742
101328.3741
101328.3742
101328.3747
101328.3743
101328.3743
101328.3744
101328.3746
101328.3746
101328.3744
101328.3746
101328.3746
101328.3751
101328.3746
101328.3748
101328.3748
101328.3753
101328.3748
101328.375
101328.375
101328.3755
101328.3749
101328.3752
101328.3751
101328.3758
101328.3751
101328.3753
101328.3753
101328.3759
101328.3753
101328.3755
101328.3755
101328.3761
101328.3755
101328.3756
101328.3756
101328.3763
101328.3756
101328.3758
101328.3757
101328.3765
101328.3757
101328.3759
101328.3758
101328.3766
101328.3759
101328.3761
101328.376
101328.3768
101328.376
101328.3762
101328.3761
101328.3769
101328.3761
101328.3762
101328.3763
101328.377
101328.3763
101328.3763
101328.3764
101328.3771
101328.3764
101328.3764
101328.3764
101328.3771
101328.3764
101328.3764
101328.3763
101328.377
101328.3763
101328.3763
101328.376
101328.3767
101328.376
101328.3761
101328.3758
101328.3764
101328.3758
101328.3758
101328.3755
101328.3761
101328.3755
101328.3755
101328.3752
101328.3757
101328.3752
101328.3752
101328.3747
101328.3752
101328.3747
101328.3746
101328.3741
101328.3742
101328.3742
101328.374
101328.3733
101328.3733
101328.3737
101328.3732
101328.3725
101328.3726
101328.3725
101328.3723
101328.3718
101328.3721