/*--------------------------------*- C++ -*----------------------------------*\
| =========                 |                                                 |
| \\      /  F ield         | OpenFOAM: The Open Source CFD Toolbox           |
|  \\    /   O peration     | Version:  2206                                  |
|   \\  /    A nd           | Website:  www.openfoam.com                      |
|    \\/     M anipulation  |                                                 |
\*---------------------------------------------------------------------------*/
FoamFile
{
    version     2.0;
    format      ascii;
    arch        "LSB;label=32;scalar=64";
    class       volScalarField;
    location    "0";
    object      rhoMean;
}
// * * * * * * * * * * * * * * * * * * * * * * * * * * * * * * * * * * * * * //

dimensions      [1 -3 0 0 0 0 0];

internalField   nonuniform List<scalar> 
31329
(
1.093265762
1.095619646
1.098301281
1.101203921
1.103258803
1.104151741
1.104876585
1.105590981
1.106322502
1.107036379
1.107726684
1.1084264
1.109144025
1.109709501
1.110342667
1.110966192
1.111720415
1.112964055
1.115086735
1.117569343
1.120468011
1.123839317
1.127524905
1.130257014
1.1309531
1.134470838
1.137430317
1.138439166
1.141484268
1.142638107
1.14277914
1.145698783
1.145934753
1.148707423
1.149510425
1.149662924
1.152838972
1.153668651
1.153856861
1.154284103
1.158030142
1.158649104
1.158688613
1.159025109
1.162324141
1.16285317
1.16294372
1.163082892
1.165596096
1.166040488
1.16618921
1.166322283
1.168579604
1.169053618
1.169213069
1.169348666
1.171532468
1.172026864
1.172221089
1.172267289
1.174060174
1.174448006
1.174586513
1.174674753
1.176386971
1.176769998
1.176904505
1.176999398
1.178696896
1.179084154
1.179221269
1.179310672
1.180922428
1.181304765
1.181445896
1.181509164
1.182927577
1.183257562
1.183344227
1.18345298
1.184846135
1.185179042
1.185225828
1.18537759
1.186752806
1.187090548
1.187059626
1.187284014
1.188560816
1.188878764
1.188854349
1.189060316
1.189245731
1.190537204
1.190592503
1.190713358
1.190901364
1.192176334
1.192274972
1.192354787
1.192542393
1.193814478
1.19393094
1.193995712
1.194187688
1.195468319
1.195596006
1.195652948
1.195847216
1.197132227
1.197264108
1.19731886
1.197516101
1.198812817
1.198944296
1.199002435
1.199208672
1.200586311
1.200696824
1.200791698
1.201070065
1.202734035
1.20291196
1.202983324
1.203246711
1.204981239
1.205164261
1.205231094
1.205477284
1.207370245
1.207586228
1.20765158
1.207900229
1.210079299
1.210408423
1.210496082
1.210752349
1.213008925
1.213374995
1.21347744
1.21384908
1.215871164
1.216009395
1.216348815
1.218153384
1.218287686
1.220007065
1.220202892
1.220719657
1.222508594
1.223065329
1.224887272
1.226774412
1.22714413
1.228751233
1.230617286
1.232747648
1.234603978
1.236244767
1.237682542
1.238510914
1.239037495
1.23949742
1.239897287
1.240297994
1.24075632
1.241161312
1.241521723
1.241897043
1.242285835
1.242637194
1.242962427
1.243306538
1.243924322
1.244738694
1.245489677
1.246152685
1.093254029
1.095573938
1.098177709
1.100920583
1.103287558
1.10499833
1.106430162
1.107751367
1.108998017
1.110129629
1.111107096
1.111934692
1.112614957
1.113058366
1.113404531
1.113818196
1.11440116
1.115483852
1.117397702
1.119693786
1.122439803
1.125686427
1.128754576
1.131712026
1.132186676
1.135620627
1.139011024
1.139725506
1.142953373
1.143641414
1.143862925
1.146733472
1.146887404
1.149950716
1.150417851
1.150563561
1.154035914
1.154551068
1.154670267
1.155074505
1.159015907
1.159377622
1.159441591
1.159758304
1.163219169
1.163537788
1.163599898
1.163763207
1.166427823
1.166700111
1.166769859
1.166926244
1.1693807
1.169679358
1.169755972
1.16990838
1.172301858
1.172621304
1.172722009
1.172807023
1.174748082
1.174990553
1.175053564
1.175165091
1.177043992
1.177287326
1.177349525
1.177460639
1.179327429
1.179577089
1.17964346
1.179745178
1.181525072
1.181774831
1.181848679
1.181924994
1.183484027
1.183696275
1.183743235
1.183838622
1.185382951
1.18560047
1.185646093
1.185742927
1.187271152
1.187494941
1.187548442
1.187631836
1.187828924
1.189261347
1.189314208
1.18938839
1.189566076
1.190896216
1.190943753
1.191017981
1.191195019
1.192514399
1.192570935
1.192636164
1.192809023
1.194125149
1.194187655
1.194247353
1.194419298
1.195746643
1.195816137
1.195870244
1.196039678
1.197374894
1.19744862
1.19749981
1.197668668
1.199024317
1.199099735
1.19915238
1.199328017
1.20077323
1.200836463
1.200913536
1.201145023
1.202935151
1.203048581
1.203108449
1.203327864
1.205187993
1.205305852
1.205361979
1.205567354
1.207604063
1.207750178
1.207795483
1.207997698
1.210363006
1.210598464
1.210652168
1.210855801
1.213284031
1.213540743
1.213612585
1.213913463
1.216031175
1.216121358
1.216394861
1.218270051
1.218364659
1.220143208
1.220279362
1.220681537
1.22255761
1.222967166
1.22484879
1.226704671
1.226960528
1.228567259
1.230313626
1.232279672
1.233972281
1.235494679
1.236851113
1.237738067
1.238412164
1.239015291
1.239542658
1.24004748
1.240573684
1.241045695
1.241475903
1.241908795
1.242344366
1.242757686
1.24316753
1.243625766
1.244234124
1.244929256
1.245590337
1.246183846
1.093263118
1.095600419
1.098221156
1.10101759
1.103721938
1.106116632
1.108273832
1.110270616
1.112109576
1.113722553
1.115028081
1.116002297
1.116643942
1.116940374
1.117068412
1.117248714
1.117641406
1.11854812
1.120234543
1.122323998
1.124904863
1.128024154
1.131050987
1.13398477
1.134454618
1.137819573
1.141101486
1.141782765
1.14489368
1.145542014
1.145770795
1.148557488
1.14870754
1.151688234
1.152144869
1.152286678
1.155647601
1.156149215
1.156264662
1.156651239
1.160443488
1.160790175
1.160853588
1.161156895
1.164486248
1.164791824
1.164852038
1.165012081
1.167601002
1.167866621
1.167932822
1.168086815
1.170477087
1.170769731
1.170843311
1.170991485
1.173310291
1.173620106
1.17371493
1.173800679
1.175690926
1.175927675
1.175986027
1.176098373
1.177937178
1.17817653
1.17823462
1.178345856
1.180168272
1.180412901
1.18047404
1.180576825
1.182312249
1.182556237
1.182623303
1.182703081
1.184229591
1.184438121
1.184479199
1.184577786
1.186092606
1.186306954
1.18634774
1.186446556
1.187940874
1.188160362
1.188209077
1.188294291
1.189680585
1.189887584
1.189935752
1.190011927
1.190185299
1.191486993
1.191530123
1.19160605
1.191777975
1.193064409
1.193116528
1.193182905
1.19334949
1.19462415
1.194682377
1.194742301
1.194906862
1.196183725
1.196248777
1.196302589
1.196464429
1.197745407
1.197814246
1.197865509
1.198028401
1.199338318
1.1994087
1.199462641
1.199636144
1.201058345
1.201119238
1.201196942
1.201427128
1.203206345
1.203317613
1.203378936
1.20359961
1.205466721
1.205583723
1.20564164
1.205850188
1.207910575
1.208059482
1.208105307
1.208307862
1.210682307
1.210920662
1.210975924
1.211174972
1.213571497
1.213825648
1.213896188
1.214189305
1.216257781
1.216345765
1.216612936
1.218440273
1.218533404
1.220281197
1.220418268
1.220805063
1.222615419
1.222993195
1.224751064
1.226463581
1.226701953
1.228187514
1.229820553
1.23156194
1.233053135
1.234447988
1.23574527
1.236744047
1.237621263
1.238413018
1.239102316
1.239735639
1.240349984
1.240903494
1.241412661
1.241911032
1.24240254
1.242880234
1.243363389
1.243886633
1.244479558
1.245098485
1.245684845
1.246213695
1.093301591
1.09572539
1.098462596
1.101451249
1.104542547
1.107569833
1.110466591
1.113202506
1.115712747
1.117874414
1.119549737
1.120688847
1.121289816
1.121412813
1.121288196
1.121202184
1.121373818
1.122075999
1.123505506
1.125353866
1.127740529
1.13071357
1.133686199
1.136590888
1.137054662
1.14033601
1.143495428
1.144139646
1.147117249
1.147719812
1.147957395
1.150647819
1.150793365
1.153678817
1.154122429
1.154260231
1.15749275
1.157978162
1.158089214
1.158456095
1.162077597
1.162406225
1.162469716
1.162758031
1.165937674
1.166228131
1.166286205
1.166442751
1.168945155
1.169202988
1.16926458
1.169416436
1.171732847
1.172018336
1.172087779
1.172231867
1.17446546
1.174764122
1.174851605
1.174938884
1.176771153
1.17700124
1.177053659
1.17716758
1.178960312
1.179194938
1.179247719
1.179359726
1.181131238
1.181369947
1.181424615
1.181529141
1.18321384
1.183451129
1.183510253
1.183594204
1.185083536
1.185287707
1.185322202
1.185424311
1.186905267
1.187115857
1.187151459
1.187252198
1.188707773
1.188922237
1.188965825
1.189052783
1.190402559
1.190604751
1.190647884
1.190726014
1.190894538
1.192163676
1.192202052
1.192279637
1.192445804
1.193694588
1.193741728
1.193809351
1.193968862
1.195196258
1.195249422
1.195309782
1.195466001
1.196685394
1.196745104
1.19679885
1.196952077
1.198171219
1.198234225
1.198285813
1.198441884
1.199699347
1.199763768
1.199819365
1.199990364
1.201385677
1.201443668
1.201522267
1.201750947
1.203517189
1.203625803
1.203688929
1.203911017
1.205785462
1.205901344
1.205961387
1.206173435
1.208259174
1.208411145
1.20845753
1.208660226
1.211041358
1.211282579
1.211339448
1.211533031
1.213887949
1.214138448
1.214207358
1.214491038
1.216496503
1.216581652
1.216840911
1.218604843
1.218695723
1.220392924
1.22053098
1.220895615
1.222614135
1.222949696
1.224548798
1.226076132
1.226291138
1.227612558
1.229081829
1.230552198
1.231829402
1.233112466
1.234402884
1.235572089
1.236695595
1.237709697
1.238585904
1.239365744
1.2400855
1.240732079
1.241326765
1.241897122
1.242451171
1.24299175
1.243533402
1.24409208
1.244668886
1.245236123
1.245764504
1.246239217
1.093373009
1.095956583
1.098900413
1.102182218
1.105718928
1.109380871
1.113041243
1.11657659
1.119834305
1.122609179
1.124692001
1.126011088
1.126569159
1.126496459
1.126091812
1.125715759
1.125643285
1.126116621
1.127260954
1.128830987
1.130989733
1.133794461
1.136696193
1.13956383
1.140019764
1.143199666
1.146221408
1.146824779
1.149652315
1.150203354
1.15045088
1.153032153
1.1531725
1.155948532
1.156375898
1.156509734
1.159594853
1.160060796
1.160166701
1.160511919
1.163939192
1.164246163
1.164310651
1.164582473
1.167593312
1.167866348
1.167922033
1.168074937
1.17047917
1.170727942
1.170783624
1.170933775
1.173165419
1.173442342
1.173506255
1.173646647
1.17578362
1.176069397
1.176147831
1.176237665
1.178004286
1.178226648
1.178271692
1.178388071
1.180127993
1.180356979
1.180403134
1.180516624
1.182229931
1.182461651
1.182508585
1.182615509
1.184242683
1.184472205
1.184522326
1.184611027
1.186058092
1.186257149
1.18628453
1.186390275
1.187832457
1.188038561
1.188068777
1.188171189
1.189582688
1.18979127
1.189829554
1.189917979
1.190098291
1.191423057
1.191460985
1.191540828
1.191703966
1.192936007
1.192969412
1.193048449
1.1932082
1.194414147
1.194455855
1.194524665
1.19467629
1.19585014
1.195897502
1.195958415
1.196105312
1.197259757
1.197313181
1.197367079
1.19751063
1.198659788
1.198715926
1.198768117
1.198916431
1.200113997
1.200171413
1.200229068
1.200397106
1.201760831
1.201815228
1.201895037
1.202121942
1.2038724
1.203977744
1.204043078
1.204266712
1.206148227
1.206262661
1.206325172
1.206540942
1.208652234
1.208807477
1.208854424
1.209056752
1.211438311
1.211681988
1.211740478
1.211927225
1.214224569
1.214469636
1.214536387
1.2148081
1.216729312
1.216810744
1.217059356
1.218734848
1.218822086
1.220434318
1.22057356
1.220904587
1.222490158
1.222768021
1.224158799
1.225440659
1.225623415
1.226721929
1.22795844
1.229116269
1.230189923
1.231407354
1.232775286
1.234190159
1.235610108
1.236885081
1.237976514
1.238923858
1.239768243
1.240520769
1.241208417
1.241856815
1.242477564
1.24307724
1.24366443
1.244243134
1.244806604
1.245338616
1.245824986
1.24625875
1.093475256
1.096285298
1.099511375
1.103164039
1.107203661
1.111528879
1.115985631
1.120374019
1.124442744
1.12788042
1.130394901
1.13190091
1.132415131
1.132137853
1.131447004
1.130782399
1.130464963
1.130700555
1.131540117
1.132796576
1.134690603
1.137302334
1.14011208
1.142931005
1.14337671
1.146434111
1.149302104
1.149861305
1.15252255
1.153017298
1.153275121
1.155734481
1.15586888
1.158519902
1.158926985
1.159057075
1.161974081
1.162416606
1.162516497
1.162838315
1.166046623
1.166327809
1.166394496
1.166648544
1.169471372
1.1697245
1.169777552
1.169926796
1.17222061
1.172458869
1.172507134
1.17265617
1.17479094
1.175057554
1.175114283
1.175251625
1.17728001
1.17755096
1.177618473
1.177712067
1.179405066
1.179618513
1.179654699
1.179774432
1.181454016
1.181676229
1.181714462
1.181830085
1.183477147
1.183700592
1.183738661
1.183848481
1.185410902
1.185631435
1.185671743
1.185765503
1.187164822
1.187357876
1.187377902
1.187487069
1.18888498
1.189085689
1.189110569
1.189214107
1.190575737
1.190777416
1.190810521
1.190899797
1.191073326
1.192352018
1.192384885
1.192465852
1.192623095
1.193813044
1.193841511
1.193921501
1.194074199
1.19523163
1.195267661
1.195337346
1.195480308
1.196593923
1.196634887
1.196696282
1.196832925
1.197914653
1.197960897
1.198015074
1.198147926
1.199218718
1.199266932
1.199319975
1.199459563
1.200589237
1.200638536
1.200698644
1.200863159
1.202189578
1.202239567
1.20232092
1.202545685
1.204276431
1.20437775
1.204445728
1.204670976
1.20655812
1.206670728
1.206735988
1.20695547
1.209089675
1.209248262
1.2092957
1.20949662
1.211865915
1.212110977
1.2121711
1.212348793
1.214563104
1.214799916
1.214863652
1.215119507
1.216923775
1.217000304
1.217233542
1.218781232
1.218862481
1.220334934
1.220475632
1.220755368
1.222147127
1.222345571
1.223463254
1.224421314
1.22456001
1.22536907
1.226297704
1.22713064
1.228051385
1.229285199
1.230836972
1.232575706
1.234343059
1.235919
1.237255299
1.238393089
1.239382655
1.240255123
1.241044161
1.241776293
1.242466167
1.2431212
1.243745898
1.244339358
1.244895377
1.245405831
1.245865154
1.246271773
1.093601998
1.096690954
1.100256494
1.104336823
1.108926067
1.113946025
1.119227144
1.12450319
1.129417317
1.133534895
1.1364781
1.138163313
1.138636908
1.138170931
1.137226898
1.136320814
1.13579956
1.135820479
1.136356738
1.137275023
1.138869044
1.141262279
1.143954304
1.146707873
1.147140202
1.150051456
1.152749325
1.153262112
1.155742609
1.15617815
1.156445351
1.158770953
1.158898622
1.161408065
1.161789974
1.161916711
1.164643949
1.165058412
1.165151328
1.165448441
1.168412943
1.168663877
1.168734151
1.168969541
1.171586162
1.1718168
1.171866991
1.172012716
1.174183588
1.17440969
1.174448938
1.17459753
1.176622286
1.176876457
1.176924211
1.177059344
1.178967145
1.179221145
1.179275901
1.179374489
1.180985886
1.1811891
1.181215127
1.181338915
1.182949846
1.183163877
1.183193123
1.183311267
1.184883425
1.185097058
1.185125475
1.185238339
1.186728547
1.186938699
1.186968832
1.187067507
1.18841329
1.188599286
1.188612176
1.188724055
1.190071581
1.190265747
1.190285772
1.190389416
1.191694992
1.191888547
1.191917104
1.19200608
1.19321653
1.193399118
1.193427613
1.193508541
1.193659447
1.194801789
1.194825799
1.194905753
1.195050827
1.196153509
1.196183998
1.19625382
1.196387452
1.19743383
1.197468107
1.197529574
1.197655179
1.198656475
1.198694839
1.198749216
1.198870513
1.199854893
1.199894247
1.199948267
1.200078211
1.201131891
1.201172002
1.201234861
1.20139516
1.202677307
1.202721981
1.202805166
1.203027285
1.204732755
1.204829176
1.204900184
1.205126974
1.207016169
1.20712656
1.207194656
1.207417397
1.209566828
1.209728573
1.209776298
1.209973893
1.212307865
1.212552164
1.212614011
1.212779037
1.214870474
1.215094706
1.215154046
1.215388035
1.217026026
1.217096147
1.217306115
1.218667119
1.2187387
1.219988963
1.220131439
1.220334363
1.221449736
1.22154309
1.222314871
1.22286594
1.222947939
1.2234156
1.223983827
1.224538895
1.225404802
1.226758177
1.228593508
1.230718452
1.232878714
1.234794214
1.236403956
1.237755137
1.238910421
1.239917392
1.240817082
1.241639047
1.242400596
1.243109632
1.243769663
1.244379761
1.244937033
1.245439055
1.245885521
1.246278411
1.093744369
1.097145581
1.101085832
1.10562684
1.110790643
1.116518232
1.122627193
1.128788151
1.134533728
1.139299216
1.142629903
1.144467811
1.144912813
1.144309462
1.143198974
1.142158318
1.141532495
1.141410114
1.141680796
1.142259303
1.143528314
1.145679748
1.14822428
1.150889824
1.151304845
1.154045195
1.156557621
1.157023602
1.159312174
1.159688464
1.159962304
1.162144059
1.162264226
1.164615467
1.164966617
1.165090479
1.167606834
1.167988028
1.168072964
1.168344728
1.171042314
1.171258607
1.17133379
1.17155023
1.173944915
1.174150526
1.174197659
1.174340176
1.176375705
1.176587777
1.176616562
1.176765268
1.178666254
1.178905413
1.178942527
1.179076321
1.180852339
1.181087155
1.181127693
1.181232259
1.182754448
1.182945987
1.182961066
1.183089105
1.184622332
1.184826424
1.184846149
1.184966669
1.186454879
1.186656884
1.186675486
1.186790946
1.188201515
1.188399715
1.188420014
1.188522772
1.189808987
1.189986654
1.18999334
1.190106477
1.19139685
1.191583013
1.191599349
1.191701351
1.192944381
1.193128338
1.193153802
1.193240481
1.193399124
1.194567633
1.194593334
1.194672136
1.194816379
1.195904891
1.195925694
1.196003797
1.196140805
1.19718179
1.197207532
1.197276039
1.197399888
1.198371811
1.198399679
1.198460223
1.198574321
1.199488069
1.199518288
1.19957239
1.199681654
1.200572844
1.200602752
1.20065759
1.2007772
1.201747479
1.201777596
1.201843225
1.201998466
1.203228018
1.203266463
1.203351589
1.203570359
1.205242624
1.205333237
1.205407453
1.205635415
1.207519333
1.207627193
1.207697765
1.207922534
1.210071016
1.210235283
1.210282871
1.210473828
1.212733309
1.212973004
1.213036921
1.213183432
1.215091377
1.215296606
1.215349384
1.215552439
1.216953892
1.217015846
1.217190093
1.218279125
1.21833555
1.219253156
1.219395322
1.219490721
1.220234114
1.220203623
1.220567713
1.220658598
1.220675944
1.220800327
1.221020001
1.221412207
1.222339687
1.223892445
1.226065144
1.228608298
1.231200269
1.233495004
1.235406849
1.236993223
1.23833322
1.239488902
1.240509123
1.241427825
1.242265458
1.243031546
1.243730806
1.244364675
1.244934006
1.24544055
1.245887463
1.246279105
1.093892227
1.097617244
1.101942577
1.106949229
1.112681824
1.119096166
1.125995645
1.132987666
1.139492831
1.144821416
1.148463583
1.150417941
1.150862942
1.150194947
1.149069668
1.14805464
1.147477774
1.147334274
1.147422343
1.147694832
1.148634661
1.150528065
1.152893034
1.15544129
1.155834416
1.158381233
1.160696845
1.161118557
1.163208842
1.163529731
1.163805087
1.165835197
1.165947166
1.168125121
1.168439745
1.168561073
1.170848325
1.171190839
1.171266859
1.171513503
1.173925448
1.174103497
1.174184408
1.174382362
1.176543537
1.176721855
1.176765774
1.176905512
1.178793821
1.178989728
1.179007153
1.179156096
1.180919708
1.181140868
1.181166225
1.181299273
1.182934246
1.18314766
1.183173381
1.18328423
1.1847104
1.184888695
1.184892994
1.18502455
1.186470413
1.1866624
1.186672973
1.186794851
1.188190064
1.188378337
1.188387941
1.188504635
1.189828476
1.190012962
1.190024821
1.190129806
1.191350199
1.191517985
1.191520467
1.191632301
1.192858029
1.193034317
1.193049198
1.193146703
1.194320427
1.194492994
1.194518095
1.194599175
1.194750068
1.195853167
1.195879043
1.195952186
1.196089597
1.197116927
1.197137027
1.197210121
1.197338811
1.198310108
1.198332983
1.198397564
1.198511522
1.199401711
1.199424393
1.199482087
1.199584745
1.20040546
1.200428056
1.200480754
1.200578139
1.201372071
1.201392658
1.201447644
1.20155668
1.20243807
1.202458016
1.20252588
1.202675107
1.203842297
1.203873799
1.203960553
1.204175027
1.205802928
1.205886958
1.205964052
1.20619225
1.208057292
1.20816254
1.208234365
1.208458631
1.210576118
1.21074154
1.210788214
1.210967061
1.213088848
1.213317519
1.213384383
1.213503164
1.215142074
1.215319434
1.215362453
1.215521662
1.216590739
1.216642916
1.216761991
1.217471124
1.217505023
1.217975748
1.218105824
1.218073022
1.218359132
1.218206968
1.218145508
1.217805873
1.217763778
1.217613323
1.217578937
1.217938633
1.218994981
1.220755016
1.223249244
1.226207867
1.229266042
1.231992847
1.234246721
1.236093512
1.237636504
1.238954396
1.240105362
1.241128975
1.242049559
1.242879583
1.243626468
1.244294689
1.244888408
1.245412441
1.245872382
1.246274324
1.094035408
1.098073803
1.102769366
1.108217785
1.114480358
1.121522579
1.129131993
1.136854797
1.144005371
1.14978544
1.153661075
1.15571363
1.15621881
1.155624542
1.154626087
1.153802496
1.153429558
1.153407056
1.153427755
1.153466211
1.154101137
1.155733047
1.157887211
1.160283757
1.160650226
1.162989048
1.165103544
1.165488938
1.16738006
1.167654082
1.167922752
1.169796043
1.169899261
1.171892967
1.172166149
1.172284769
1.174330495
1.174629336
1.174695749
1.174918543
1.177034163
1.177172181
1.177258506
1.177439287
1.179361265
1.179510625
1.17955121
1.179688555
1.181418758
1.181596089
1.181602345
1.181750757
1.183364729
1.18356463
1.183578241
1.183710405
1.185198228
1.185388226
1.185400015
1.185516204
1.186840676
1.187004017
1.186999183
1.18713209
1.188480562
1.188657816
1.188660958
1.188781897
1.190075579
1.190247754
1.190250597
1.190365841
1.191596458
1.191765256
1.191771574
1.191875456
1.193023436
1.193179414
1.193181224
1.193287607
1.194440314
1.194604337
1.194621546
1.194710088
1.195807381
1.195966358
1.195995669
1.196065951
1.19620918
1.197238407
1.197269416
1.19733127
1.197461822
1.198418838
1.198442523
1.198505519
1.198625841
1.199518117
1.199541519
1.199597965
1.199702363
1.200504162
1.200524143
1.200575901
1.200667989
1.201393362
1.201410132
1.201459343
1.201545932
1.202243098
1.202255719
1.20230933
1.202408269
1.203198743
1.203209493
1.203278095
1.203420241
1.204514124
1.204538506
1.2046258
1.204834681
1.206402433
1.206479622
1.206558241
1.206784757
1.208607459
1.208710569
1.208780863
1.208999914
1.211034619
1.211198706
1.211243125
1.211401126
1.213292387
1.213500229
1.213571293
1.213649528
1.214908009
1.215047347
1.215076138
1.21517305
1.215795665
1.215836345
1.215875205
1.216107178
1.216111792
1.216058468
1.216157062
1.215998301
1.215794697
1.215564895
1.215133911
1.214493935
1.214413725
1.214098838
1.213932946
1.214323129
1.215488921
1.217390064
1.220126794
1.223453194
1.226992186
1.23022011
1.232886151
1.235037405
1.236809068
1.238305145
1.239598287
1.240736415
1.241749072
1.242652754
1.243458097
1.244172628
1.244803272
1.245357182
1.245841792
1.246264566
1.094165458
1.098488399
1.103518236
1.109360684
1.116087884
1.123670632
1.131881812
1.140214784
1.147893174
1.154036436
1.158115221
1.160296467
1.160951201
1.160562987
1.159832016
1.159320273
1.159246582
1.159435416
1.159494007
1.159391646
1.1597743
1.161157472
1.163076504
1.165287761
1.165624068
1.167755024
1.169672478
1.17003588
1.171733515
1.171974475
1.172224829
1.173941065
1.174035301
1.17583999
1.176069354
1.176184008
1.177985302
1.178236778
1.178293371
1.178494658
1.180315198
1.180414553
1.180504101
1.180669793
1.182354219
1.182473969
1.182511125
1.182646175
1.184209344
1.184365498
1.184362445
1.184508159
1.185963281
1.186138733
1.186142356
1.186272195
1.187610668
1.18777566
1.187776511
1.187895199
1.189113405
1.18925993
1.189249611
1.189379744
1.190620843
1.190780322
1.190779555
1.190895554
1.192080242
1.192233791
1.192234012
1.192343323
1.193474852
1.193625787
1.193631449
1.193728904
1.194797205
1.194939002
1.19494565
1.195040351
1.196110483
1.196259278
1.196284545
1.196357612
1.197370641
1.197513393
1.197553642
1.197605651
1.197741378
1.198686328
1.198729497
1.19877217
1.198895818
1.199771265
1.199804535
1.199850445
1.19996243
1.200765825
1.200794355
1.200837242
1.200932838
1.201642099
1.201662985
1.201704922
1.201788112
1.202421133
1.202435319
1.202478102
1.202555932
1.203163054
1.203170738
1.2032204
1.203310531
1.204012885
1.204017146
1.204083615
1.204217512
1.205226371
1.205244538
1.205329986
1.205531292
1.207016296
1.207087358
1.207164456
1.207385782
1.209127392
1.209229949
1.209293317
1.209498978
1.211372401
1.211531044
1.211571135
1.211695817
1.213232661
1.213406766
1.2134832
1.213505303
1.214258886
1.214350383
1.21435961
1.214371892
1.214452528
1.214478379
1.214419815
1.214132814
1.214105632
1.213555027
1.213591558
1.21335353
1.212721929
1.212490152
1.211811762
1.211039601
1.210943873
1.210558565
1.210332834
1.210738029
1.211934502
1.213873136
1.216721843
1.220303008
1.224275649
1.228058241
1.231239373
1.233778477
1.23582946
1.237532892
1.238985947
1.24025135
1.241367239
1.242355611
1.243230892
1.244003543
1.244682847
1.24527785
1.245797491
1.246250408
1.09427777
1.09884648
1.104163782
1.110341471
1.117457783
1.125485885
1.134187663
1.143017559
1.151131851
1.157599032
1.161906784
1.16428374
1.165170932
1.165115997
1.164755043
1.164613881
1.164852072
1.165253038
1.16539042
1.165230275
1.165431566
1.166594819
1.168271725
1.170273988
1.170579538
1.172519319
1.174252722
1.174609047
1.176129796
1.176356742
1.176575499
1.178143875
1.178229554
1.179849127
1.180036321
1.180144348
1.181709821
1.18191305
1.181960377
1.182143103
1.183684518
1.183750933
1.183839037
1.183992109
1.185448508
1.18553949
1.185573133
1.185705421
1.187096276
1.187228826
1.187220516
1.187359546
1.188651615
1.18880004
1.188797794
1.188921862
1.19011289
1.190251845
1.190247245
1.190363146
1.191471011
1.191598745
1.191588862
1.191709802
1.192834259
1.192972791
1.192973689
1.193078765
1.194148432
1.194280938
1.194284826
1.194381605
1.195408575
1.195539416
1.195551399
1.195634902
1.196615001
1.196739901
1.196758779
1.196833492
1.197810154
1.197940409
1.197980883
1.198030368
1.198950243
1.199073979
1.199132843
1.19915796
1.200016976
1.200134779
1.200197209
1.200212519
1.200328772
1.201110927
1.201159342
1.201181582
1.20128511
1.201992645
1.202030257
1.202055155
1.202142918
1.202761436
1.202786798
1.202815756
1.202892102
1.203442795
1.203458416
1.203491878
1.203563426
1.204093703
1.204100873
1.204143392
1.20422647
1.204847687
1.204850158
1.204910114
1.205034426
1.205945346
1.205960001
1.206039229
1.206229649
1.207599489
1.207666538
1.207736601
1.20794646
1.209550912
1.209655172
1.209703784
1.209883859
1.211488382
1.21163603
1.211668983
1.211744606
1.212790822
1.212917107
1.212997458
1.212949432
1.213095329
1.213131274
1.213117105
1.213030392
1.212537624
1.212544304
1.212392048
1.211656887
1.211603509
1.210692105
1.210654013
1.210404741
1.209509428
1.209320039
1.208534448
1.207745623
1.20764602
1.207235619
1.206973722
1.207351398
1.208495822
1.210355291
1.213144906
1.216795916
1.2210574
1.225369373
1.229160978
1.232212608
1.234636702
1.236607239
1.238256246
1.239671499
1.240906418
1.241992843
1.242949966
1.243792074
1.244530838
1.245177045
1.245740974
1.246232328
1.094371086
1.099144049
1.104699505
1.111152795
1.118585487
1.126972253
1.136069446
1.145308303
1.153801416
1.160590651
1.165176865
1.167805069
1.169038414
1.169385862
1.169444846
1.169665247
1.170165848
1.170701373
1.170880584
1.170705486
1.170801499
1.171789707
1.173244809
1.175032974
1.175310554
1.177086838
1.178658371
1.179019065
1.180393575
1.180625471
1.180803644
1.182243353
1.182321936
1.183769699
1.18392157
1.184019016
1.185369601
1.185527797
1.185567286
1.185733889
1.187025097
1.187068889
1.187148497
1.187290978
1.188535891
1.188600987
1.188631041
1.188759113
1.189977599
1.190085118
1.190077908
1.190204267
1.191335568
1.191455782
1.191454309
1.191566749
1.192615642
1.192728414
1.192726265
1.192831412
1.193825
1.193932129
1.193930335
1.194033789
1.195034011
1.195149056
1.195158735
1.195245319
1.196195495
1.196305242
1.196320465
1.196396612
1.197313577
1.197422597
1.197448783
1.197509627
1.198391563
1.198497112
1.1985355
1.198581769
1.199453403
1.199562377
1.199623798
1.19964283
1.200460295
1.200563047
1.200644863
1.20063769
1.20075679
1.201499381
1.201583318
1.201567993
1.201675541
1.202357122
1.202421615
1.202418724
1.202513535
1.203126198
1.203173932
1.203180261
1.203261298
1.203799624
1.203831822
1.203846847
1.203918358
1.204403187
1.204424091
1.204446269
1.204513794
1.204983754
1.204995505
1.205027492
1.20510487
1.205652469
1.205659109
1.205707101
1.205819822
1.206616784
1.206632459
1.206699006
1.206872988
1.20808494
1.208150766
1.208206547
1.208395646
1.209789847
1.209898395
1.20992266
1.210060881
1.21127368
1.211402618
1.211425232
1.211437609
1.21188574
1.21195355
1.212030596
1.211909341
1.211405929
1.211382385
1.21134495
1.211165018
1.210182082
1.210164471
1.209954818
1.208930899
1.208863637
1.207780388
1.207690063
1.20746827
1.206490557
1.206333564
1.205532391
1.204768329
1.204669176
1.204258503
1.203993505
1.204313991
1.20534787
1.207032718
1.209592958
1.213083082
1.217390882
1.222074096
1.226485627
1.23017344
1.233103953
1.235444092
1.237358298
1.238967979
1.24035135
1.241555917
1.242611233
1.243536169
1.244346206
1.245054237
1.245671986
1.246210245
1.094448511
1.099391216
1.105144613
1.111826287
1.119519303
1.128198797
1.137617957
1.14719467
1.1559845
1.163095709
1.168012386
1.170994215
1.172615553
1.173398156
1.173856342
1.17436884
1.175028217
1.17558547
1.17574696
1.17556464
1.175625117
1.176496297
1.177777996
1.179371477
1.179627207
1.181270822
1.182712249
1.183079651
1.184347426
1.184597158
1.184733528
1.186068499
1.186142076
1.187435876
1.18756418
1.187646977
1.188810964
1.188932066
1.188965858
1.189116725
1.190194377
1.190228364
1.190291677
1.190424169
1.191478664
1.191523228
1.191549631
1.191670437
1.1927225
1.192805772
1.192806884
1.192913557
1.19389197
1.193985304
1.193992408
1.19408582
1.1949997
1.195087814
1.195096743
1.195181871
1.196057738
1.196143647
1.196157289
1.196235026
1.197106482
1.197197416
1.197222461
1.197283322
1.198111382
1.198198348
1.198231232
1.198279721
1.199081624
1.199168644
1.19921445
1.199246088
1.200020044
1.200105299
1.20016599
1.200179744
1.200936757
1.201023809
1.201105794
1.201093749
1.201801996
1.201884006
1.201984906
1.201948585
1.202611262
1.202689978
1.202789388
1.202749141
1.202846434
1.203429598
1.203505512
1.203482744
1.203569033
1.204098204
1.204154558
1.204145465
1.204221236
1.204697419
1.204737975
1.204739718
1.204808157
1.205246176
1.205275743
1.205285353
1.205350214
1.20577427
1.20579535
1.205813557
1.205885149
1.206361747
1.20637814
1.20640871
1.206506363
1.207166641
1.207188383
1.207234867
1.207384803
1.208391831
1.208458348
1.208492942
1.208648955
1.209748597
1.209862225
1.209853659
1.209932786
1.210654539
1.210755062
1.210764623
1.210709234
1.210512817
1.210519511
1.21058347
1.210399491
1.209308785
1.209224553
1.209169554
1.208930942
1.207630205
1.207589575
1.207369022
1.206233818
1.206163395