/*--------------------------------*- C++ -*----------------------------------*\
| =========                 |                                                 |
| \\      /  F ield         | OpenFOAM: The Open Source CFD Toolbox           |
|  \\    /   O peration     | Version:  2206                                  |
|   \\  /    A nd           | Website:  www.openfoam.com                      |
|    \\/     M anipulation  |                                                 |
\*---------------------------------------------------------------------------*/
FoamFile
{
    version     2.0;
    format      ascii;
    arch        "LSB;label=32;scalar=64";
    class       volScalarField;
    location    "0";
    object      T;
}
// * * * * * * * * * * * * * * * * * * * * * * * * * * * * * * * * * * * * * //

dimensions      [0 0 0 1 0 0 0];

internalField   nonuniform List<scalar> 
31329
(
322.8364582
322.1625045
321.3977341
320.5756585
320.0064874
319.7784562
319.6023474
319.4314366
319.2553132
319.0792516
318.8974518
318.692176
318.4544735
318.2342191
317.9870396
317.7290101
317.4435879
317.033827
316.391831
315.663423
314.8299269
313.8800632
312.7663118
312.0487339
311.8516463
310.8920079
310.1431239
309.8710557
309.0712644
308.742449
308.7193387
307.9524352
307.8889485
307.1810348
306.9574604
306.9210174
306.103984
305.8790757
305.8290809
305.7233203
304.7530829
304.5881994
304.5796209
304.4951091
303.6475966
303.510115
303.4866929
303.4512446
302.8089796
302.695915
302.6583609
302.6225157
302.0428344
301.923199
301.8834753
301.8461718
301.2822123
301.157637
301.1092562
301.09451
300.6252507
300.5266992
300.4919409
300.4673359
300.0161454
299.9165121
299.8812081
299.8574929
299.4188199
299.3179642
299.2817145
299.2606527
298.8541844
298.7560083
298.7196326
298.7047465
298.35176
298.2681125
298.2462884
298.2192435
297.8734006
297.7899065
297.7783043
297.7402725
297.3982363
297.3140516
297.3210719
297.2657479
296.948184
296.8693886
296.8740032
296.824199
296.7776814
296.4585359
296.4441283
296.4148465
296.3674019
296.0524955
296.0281765
296.0082785
295.960497
295.6436027
295.6151043
295.5985506
295.5496919
295.2266385
295.1947369
295.1804372
295.1317891
294.8044969
294.7703009
294.7574088
294.7095109
294.3788491
294.3432778
294.3306989
294.2825999
293.9364164
293.9052376
293.8844238
293.8203033
293.4112548
293.3639566
293.3489346
293.2890489
292.8689438
292.8213219
292.8070032
292.7509762
292.2993884
292.2451585
292.2294716
292.172592
291.6613072
291.5825116
291.5613022
291.5013342
290.9766011
290.892338
290.8679657
290.7777611
290.3106323
290.2799361
290.1935833
289.7719364
289.7395061
289.3204544
289.2764884
289.1476423
288.7127036
288.5789604
288.1361825
287.6769917
287.5892716
287.1975353
286.7653538
286.2662663
285.8369511
285.4638842
285.1429857
284.9631914
284.8490145
284.745153
284.6521391
284.5581089
284.4514026
284.3576644
284.2746951
284.1888716
284.1001329
284.0201185
283.946144
283.8678758
283.7271571
283.5417231
283.3709112
283.2202792
322.8589341
322.2362851
321.5419298
320.820192
320.2206499
319.8227286
319.5157846
319.2476861
319.0001519
318.7695165
318.5429232
318.2929656
317.9981823
317.6878262
317.3551817
317.0015101
316.6333382
316.1712308
315.5259799
314.8143735
314.0059254
313.0946262
312.2541272
311.4657414
311.3393921
310.4387762
309.5625499
309.3824347
308.5552802
308.3806575
308.3237134
307.6012881
307.5623547
306.7858592
306.6665681
306.6294137
305.7450441
305.6130502
305.5826032
305.4798775
304.4759184
304.3831557
304.3672623
304.2876884
303.4129382
303.3322408
303.3165701
303.275634
302.6045717
302.5363609
302.5190411
302.4787979
301.854394
301.778799
301.7595271
301.7199241
301.1038994
301.0224043
300.9969813
300.9736227
300.4617562
300.3982927
300.3819962
300.3515927
299.8485377
299.782929
299.7655702
299.7373213
299.2496173
299.1838251
299.1657201
299.1409777
298.6916925
298.6283995
298.6095969
298.590991
298.2051053
298.1524952
298.1410631
298.1173515
297.7365521
297.6829171
297.6718728
297.6477168
297.2698028
297.2144444
297.201131
297.1805653
297.1317654
296.7775216
296.7641074
296.7461519
296.702405
296.3748465
296.3629088
296.344842
296.3010787
295.9754022
295.9615455
295.9451813
295.9015953
295.5715458
295.5561636
295.5407007
295.4964293
295.1567788
295.1392716
295.1250316
295.0809424
294.734595
294.715528
294.7021924
294.6585276
294.3072196
294.2871963
294.2741624
294.2302443
293.864859
293.8479812
293.8295598
293.7736744
293.3358137
293.3075334
293.2934893
293.2415354
292.7960708
292.7673721
292.7543625
292.7064307
292.2272619
292.1922201
292.1816417
292.1355071
291.5904429
291.535821
291.523163
291.4772261
290.9252492
290.8671364
290.8507512
290.7818228
290.2992096
290.2790021
290.2135563
289.773506
289.7506712
289.314009
289.2805777
289.1806435
288.7133926
288.6121395
288.1432948
287.6785538
287.6150067
287.2158912
286.7934819
286.3259923
285.9349306
285.5977959
285.3116046
285.1352106
284.9982114
284.8643856
284.7398555
284.6180467
284.4926025
284.3815052
284.281521
284.1821426
284.0830678
283.9895271
283.8969404
283.7933015
283.655337
283.4975593
283.3475811
283.2130522
322.8773105
322.295513
321.6500662
320.9747734
320.3478098
319.8309649
319.4012738
319.0302844
318.703029
318.4110305
318.1334595
317.8305036
317.465656
317.0505227
316.5953566
316.1247042
315.6554246
315.1269262
314.4704162
313.7708756
312.98283
312.1071478
311.2979155
310.5403534
310.419673
309.5737584
308.7657342
308.6038806
307.8497492
307.6956578
307.6392203
306.980111
306.9442627
306.2241165
306.113164
306.0781694
305.2544185
305.1307559
305.1023216
305.0070054
304.0719547
303.9858136
303.9705089
303.8968565
303.0822868
303.0074068
302.9926805
302.9536746
302.320363
302.2560462
302.2403902
302.200912
301.6022106
301.5295471
301.5115904
301.4727644
300.8768672
300.7984413
300.7750082
300.7501728
300.2407947
300.1777569
300.162606
300.1304476
299.6201819
299.5529499
299.535555
299.5072306
299.0213858
298.9552447
298.9375616
298.9133152
298.4769272
298.4152378
298.3980728
298.3791236
298.0075816
297.9567758
297.9471374
297.9228949
297.5556822
297.5037713
297.4943334
297.4697655
297.1046952
297.0510578
297.0391861
297.0182593
296.6786837
296.6279067
296.6157349
296.5975088
296.5553085
296.2381438
296.227476
296.2090773
296.1668305
295.8512695
295.8388476
295.8218842
295.7793344
295.4568147
295.4426754
295.4265281
295.3827419
295.0469613
295.0303427
295.015447
294.9714044
294.6255369
294.6070311
294.5930756
294.5491051
294.1955127
294.1756645
294.16218
294.1179507
293.7499668
293.7327491
293.7144362
293.6591978
293.2239234
293.1959254
293.1818613
293.1305404
292.6893804
292.6610757
292.6480405
292.6006642
292.1275755
292.0923852
292.0819997
292.0377785
291.5110657
291.4576893
291.4450101
291.4024107
290.8825933
290.8279851
290.8125658
290.7478488
290.2951088
290.2764707
290.2123415
289.7880068
289.7652268
289.32387
289.2895334
289.1891375
288.7188544
288.6207071
288.1605824
287.7063532
287.6439639
287.2550504
286.846418
286.4244145
286.0841832
285.7918936
285.5429502
285.3631146
285.193072
285.0187536
284.853265
284.6963267
284.5459775
284.4130372
284.293187
284.1781203
284.0663354
283.9585734
283.8498879
283.7320544
283.5981782
283.4582315
283.3256365
283.2061182
322.8892998
322.3328252
321.7128713
321.0514124
320.393336
319.7861949
319.2451052
318.7695614
318.3560084
317.9957063
317.6593841
317.2918823
316.8394929
316.3004746
315.7047311
315.1035804
314.5261985
313.9302742
313.2654277
312.5824766
311.8186647
310.9829679
310.2113713
309.4888201
309.3747512
308.5920289
307.8602331
307.7185224
307.0466517
306.9158432
306.8598266
306.2720846
306.2397506
305.5834826
305.4822891
305.4496082
304.6948294
304.5808252
304.5547122
304.4676862
303.6110836
303.5327166
303.5178981
303.4509047
302.7047475
302.6365547
302.622901
302.586037
301.9957723
301.9359393
301.9223085
301.8835678
301.3142974
301.245053
301.2287502
301.1906243
300.6174599
300.5425535
300.5215226
300.4948178
299.987835
299.925246
299.9115166
299.8772053
299.3585356
299.2894419
299.272143
299.2435938
298.7600812
298.6936066
298.6765547
298.6527318
298.2312215
298.1714196
298.1561906
298.1367867
297.7816836
297.7329796
297.7253539
297.7005414
297.3488565
297.2989469
297.2912499
297.2663039
296.9158808
296.8642316
296.8539149
296.8326671
296.5059033
296.4568385
296.446002
296.4275539
296.387108
296.0818779
296.0725941
296.0538853
296.013345
295.7093141
295.6985101
295.6808785
295.6394774
295.3254426
295.3127487
295.2957843
295.2525263
294.9210607
294.905514
294.8898049
294.8457991
294.5004297
294.4826375
294.4678984
294.423569
294.0673807
294.0478072
294.033737
293.9891581
293.6183399
293.6008223
293.5825602
293.5280621
293.0959216
293.068317
293.0541809
293.0036093
292.5677849
292.5399788
292.5269117
292.4802794
292.0153464
291.9800821
291.969947
291.9280578
291.4243679
291.3726868
291.3600699
291.3213556
290.840217
290.7899424
290.7756594
290.7157418
290.2983103
290.2815294
290.2188122
289.8131515
289.7904736
289.3453095
289.3097758
289.2095099
288.7376846
288.6439715
288.1960094
287.7572033
287.6967398
287.3249166
286.940176
286.5766602
286.2968122
286.0545569
285.8388422
285.6465325
285.4351176
285.211508
284.9967361
284.7976901
284.6158278
284.4562093
284.3134102
284.1800497
284.0533219
283.9311564
283.8094147
283.6838965
283.5540918
283.42627
283.3071632
283.2001957
322.893524
322.3450467
321.7293077
321.0592044
320.3631351
319.6779714
319.0350293
318.4554859
317.9505677
317.51455
317.1090566
316.660561
316.0970381
315.4097575
314.6537723
313.9108572
313.2234553
312.5654093
311.8998518
311.2399477
310.5048642
309.7137067
308.9869318
308.3041927
308.1978268
307.4874879
306.8398945
306.7199777
306.1392894
306.0342182
305.9787389
305.4701937
305.4418192
304.8572932
304.7674828
304.7372309
304.0603194
303.9574728
303.9340261
303.8561682
303.0882165
303.0189391
303.0044416
302.9448463
302.2757945
302.2152385
302.2027937
302.168277
301.626757
301.5720592
301.5608752
301.5228153
300.9871097
300.9218573
300.9076207
300.8700494
300.3222849
300.2513903
300.2332343
300.2041709
299.6991354
299.6369772
299.6249624
299.5880496
299.0595838
298.9883593
298.9712871
298.9423709
298.4619174
298.3951772
298.3789718
298.3555184
297.9511883
297.8936242
297.88061
297.8606821
297.5243514
297.4780972
297.4726636
297.4473004
297.1132828
297.0656962
297.0598402
297.0346009
296.7007984
296.651443
296.6427534
296.6212818
296.5780842
296.2620173
296.2525708
296.2340046
296.1955361
295.9039718
295.8961659
295.8772036
295.838562
295.5475833
295.5385637
295.5202179
295.4800636
295.175459
295.1643998
295.1464968
295.1037965
294.7770498
294.7627596
294.7460746
294.7020863
294.3572065
294.3402947
294.3245916
294.2798415
293.9207466
293.9015672
293.8867583
293.841796
293.4680109
293.4502614
293.4319774
293.3783322
292.9501184
292.9230514
292.9087861
292.8591222
292.4301599
292.4029733
292.3899036
292.3443309
291.8909166
291.8557343
291.8459409
291.8069909
291.3332231
291.2839471
291.2715167
291.2374164
290.8037734
290.7589781
290.7460565
290.6916439
290.3165494
290.3019643
290.2408399
289.8579941
289.835529
289.3890643
289.3518577
289.2529968
288.7827698
288.6956299
288.2650899
287.8499503
287.7927728
287.4490362
287.1039058
286.8147003
286.6045585
286.4145866
286.2227445
286.0058878
285.7432193
285.4595425
285.1848537
284.9341848
284.7119252
284.5189235
284.3485984
284.1936353
284.0492971
283.912531
283.7798311
283.6495221
283.5226996
283.4029069
283.29338
283.1957369
322.8899794
322.3329272
321.7032358
321.0072685
320.2632017
319.5022393
318.7621924
318.079112
317.4782365
316.9576386
316.4681811
315.9151208
315.2091262
314.3440166
313.4086423
312.5182396
311.7273948
311.0215164
310.3685061
309.7396016
309.0380429
308.2959594
307.6218979
306.9846032
306.8871886
306.2586679
305.7026733
305.6057133
305.1240229
305.0464797
304.9919918
304.569641
304.5456668
304.0407441
303.9641294
303.936372
303.3464294
303.2563959
303.235991
303.1681199
302.4993313
302.4405904
302.4261919
302.3746852
301.7915317
301.7396143
301.7285193
301.6965358
301.2096995
301.1608387
301.1525693
301.115112
300.6174545
300.5568596
300.5451669
300.507929
299.9881337
299.9217714
299.9070019
299.8749973
299.370952
299.3091428
299.2991171
299.2591355
298.7193251
298.6456796
298.6289271
298.5995536
298.1232916
298.0564427
298.0412726
298.0181902
297.6337024
297.5788105
297.5682336
297.5477901
297.2327795
297.1893802
297.186247
297.1604395
296.8463973
296.8015044
296.7975253
296.7721561
296.4570895
296.410375
296.4033096
296.3818016
296.3409352
296.0413423
296.0332721
296.0147771
295.9785172
295.7025347
295.6962605
295.6771546
295.6405921
295.3642432
295.3571403
295.3380688
295.2992289
295.0049088
294.9956371
294.9767023
294.9345663
294.6128529
294.5999829
294.582174
294.5381714
294.1937511
294.1778861
294.1610391
294.1158002
293.7535452
293.7348888
293.7191873
293.6738208
293.2971544
293.2792692
293.2608883
293.2082356
292.7851334
292.7587795
292.7443418
292.6958087
292.2760177
292.2495777
292.2366109
292.192615
291.756094
291.7212841
291.7119765
291.676847
291.243139
291.1973617
291.1852795
291.1567965
290.7825578
290.7447903
290.7335382
290.6855417
290.3619853
290.3499677
290.2908664
289.9369088
289.9148835
289.4722891
289.4327044
289.3375158
288.8743254
288.7969474
288.3912812
288.012513
287.9607604
287.660408
287.375625
287.1757107
287.040696
286.8986052
286.7151243
286.4604388
286.1364926
285.7815561
285.4352287
285.1214031
284.8476863
284.6125147
284.4082254
284.2266858
284.0615723
283.9090339
283.7657826
283.6307191
283.5045777
283.3889363
283.2849646
283.1929909
322.8792201
322.2982963
321.6381326
320.9006212
320.0984937
319.2587072
318.4216134
317.6335738
316.9309795
316.3136828
315.7186343
315.0278511
314.1395021
313.0640427
311.9353519
310.9023872
310.0271882
309.2986016
308.6763466
308.0863486
307.4227795
306.7341098
306.1212533
305.5360964
305.4490242
304.9111846
304.4528358
304.3791502
304.0021644
303.9528276
303.9002777
303.5694994
303.5503317
303.1323375
303.0708576
303.0456121
302.5513732
302.4759116
302.4589402
302.4017383
301.842324
301.795615
301.7810673
301.7382187
301.2492672
301.2069896
301.1973827
301.1680854
300.7418406
300.6995477
300.6946706
300.6577396
300.2028283
300.1476491
300.1390154
300.1018178
299.6122195
299.5509091
299.5400321
299.5044337
298.9997594
298.9381273
298.9302899
298.8868118
298.3340931
298.2577414
298.2413118
298.2115114
297.7412092
297.6745525
297.6605375
297.6379318
297.2763264
297.2246426
297.2166198
297.1957926
296.9048008
296.8647212
296.8638796
296.837862
296.5462085
296.5044316
296.5022545
296.477039
296.1829146
296.1392322
296.133663
296.1124432
295.8353233
295.7932106
295.7863908
295.7682842
295.7344587
295.476126
295.4713676
295.4523057
295.417968
295.1577819
295.1526688
295.1329108
295.0953979
294.8120042
294.8046051
294.7845955
294.7429955
294.4264852
294.4151471
294.3961095
294.3520473
294.0080688
293.9933895
293.9752512
293.9294555
293.5639597
293.5459439
293.5292293
293.4834652
293.1044162
293.0865098
293.0679853
293.0165048
292.6003272
292.5748788
292.5602801
292.513203
292.1061316
292.0805478
292.0679377
292.026347
291.6151541
291.5812234
291.5726238
291.5425805
291.1635668
291.1229307
291.1113818
291.089898
290.7908025
290.7620646
290.7529093
290.712575
290.4525363
290.4434482
290.3873495
290.0712046
290.0500415
289.6203833
289.5775407
289.4895283
289.0417327
288.9783471
288.6071038
288.2821907
288.2387885
287.9994246
287.7972433
287.6934255
287.6289541
287.518758
287.3222319
287.0172536
286.6241641
286.1899712
285.7627637
285.3749245
285.0381915
284.7507338
284.5043393
284.289819
284.099295
283.9279802
283.7720151
283.6297639
283.5007899
283.3850586
283.2823613
283.1921086
322.8622151
322.2442489
321.5396632
320.747178
319.8757735
318.94988
318.0115298
317.1140001
316.3007494
315.5688318
314.8368719
313.9639313
312.8465746
311.5314325
310.2088323
309.0554819
308.1308616
307.4147938
306.8429348
306.2970445
305.6750426
305.0440031
304.5013207
303.9761531
303.9008923
303.4607513
303.1036887
303.0522801
302.7824708
302.7604068
302.7113951
302.4749752
302.4609417
302.1358411
302.0914122
302.0686754
301.6776035
301.6184634
301.6053034
301.5592201
301.1181243
301.0848334
301.0699288
301.0360884
300.6482606
300.616531
300.6085385
300.5820363
300.2218418
300.1868397
300.1857772
300.1493414
299.7418353
299.6929069
299.687831
299.6503289
299.1924675
299.136679
299.1301235
299.0902596
298.5825768
298.5208372
298.515232
298.4679635
297.9010762
297.8217953
297.8055329
297.7755539
297.3139543
297.2480145
297.2351511
297.2132925
296.877959
296.8301364
296.8246108
296.803714
296.5394656
296.5032287
296.5044849
296.4786765
296.2118189
296.1736305
296.1730012
296.1484044
295.8774407
295.8372278
295.8328297
295.8124278
295.7769081
295.5169784
295.5111095
295.493893
295.4626987
295.2241525
295.22078
295.2020618
295.1700233
294.9273111
294.9241616
294.9038303
294.8675709
294.5953624
294.5898086
294.5687631
294.527625
294.2162978
294.2065077
294.1862225
294.1420467
293.7986005
293.7851775
293.7656858
293.7192803
293.3508528
293.3335466
293.3157925
293.2696891
292.8894843
292.8716627
292.8530372
292.8029699
292.3965354
292.3721632
292.3575501
292.3124195
291.9235669
291.8988856
291.8871558
291.8492644
291.4763282
291.4441162
291.4365598
291.413383
291.1095665
291.0764574
291.0656231
291.0529875
290.8498699
290.8327511
290.8262624
290.7950999
290.6122766
290.6063811
290.5552847
290.2892493
290.2696562
289.8668566
289.8200846
289.7438634
289.3232276
289.2782539
288.9517132
288.7011138
288.6692919
288.5069434
288.4012799
288.3812228
288.3656223
288.2568954
288.023359
287.6584369
287.1931594
286.6790777
286.1692787
285.7022922
285.2944456
284.9458
284.6488434
284.3938969
284.1718608
283.9767772
283.8036521
283.6496367
283.512921
283.3921405
283.286017
283.1932286
322.8398815
322.1735729
321.4122835
320.5523563
319.6002149
318.5788137
317.5315781
316.5160892
315.5779025
314.7048147
313.7928128
312.683209
311.2903515
309.7222906
308.2281607
306.9998348
306.0765316
305.4127815
304.9057466
304.4038703
303.8264665
303.257684
302.7942403
302.3378079
302.2757548
301.9366761
301.6808567
301.6488419
301.4843411
301.486506
301.4434316
301.3003696
301.2916536
301.062791
301.0370076
301.0168242
300.7337719
300.6924865
300.683449
300.6485923
300.3320679
300.3132168
300.2978969
300.2730691
299.9906299
299.9701169
299.9638387
299.940195
299.6504634
299.6234099
299.6264327
299.5905675
299.2346642
299.1928574
299.1917417
299.1535737
298.7278587
298.6779383
298.6759581
298.6312244
298.1174513
298.0552004
298.0516157
298.0005361
297.4191353
297.33687
297.3203799
297.2908149
296.8421029
296.7777396
296.7658356
296.7452293
296.4397867
296.3965984
296.3932449
296.3728527
296.1378883
296.1060625
296.1089415
296.084027
295.8441976
295.8101128
295.8104998
295.7872547
295.5415758
295.5053184
295.5014689
295.4827136
295.450146
295.2136525
295.2081813
295.1926124
295.1641763
294.9474456
294.9451537
294.9272315
294.8974401
294.6729965
294.6716248
294.6509421
294.6157381
294.3543725
294.3504596
294.3285493
294.2877464
293.981398
293.9730148
293.9516162
293.9072789
293.5647799
293.5525555
293.531818
293.484795
293.1145157
293.0978805
293.0792533
293.032959
292.6540354
292.636341
292.6178513
292.5695413
292.1772554
292.1540313
292.1398249
292.0974048
291.7352787
291.7114068
291.7015357
291.6693099
291.3544907
291.3254099
291.3193868
291.3054111
291.1015239
291.0787163
291.0686994
291.0678399
290.9875846
290.9851008
290.9819661
290.9616507
290.8688219
290.8659328
290.8235316
290.6215103
290.6045281
290.2470811
290.1971214
290.137254
289.759257
289.7344757
289.4633099
289.3039726
289.2866426
289.1980755
289.1834912
289.2113695
289.2061682
289.062828
288.7732419
288.3431757
287.8076682
287.2199255
286.6348129
286.0932381
285.6144125
285.2010788
284.8478369
284.5458714
284.2858171
284.0606787
283.864334
283.692586
283.5422942
283.4109316
283.2963128
283.1964669
322.812905
322.0883299
321.2593011
320.3202125
319.2756399
318.1476875
316.9807679
315.8340009
314.7491896
313.6978133
312.551784
311.1482354
309.4479752
307.6441351
306.0358452
304.8020041
303.9395863
303.3613272
302.9210713
302.4580918
301.9298403
301.4291441
301.0529638
300.6749933
300.6272392
300.3874084
300.2238108
300.2071082
300.1416756
300.1624995
300.1286192
300.0726915
300.0692288
299.9354254
299.929029
299.9116056
299.7369721
299.7145134
299.7097587
299.6857909
299.495438
299.4913295
299.4758205
299.4595152
299.2823623
299.2732773
299.2687674
299.2480169
299.0313103
299.0127165
299.0198232
298.9847804
298.6835866
298.6497282
298.6527776
298.6136138
298.21884
298.1749115
298.1774647
298.1274559
297.6041907
297.5409395
297.5387909
297.4843488
296.890066
296.8051119
296.7876695
296.7596154
296.3299917
296.2685352
296.2571372
296.2385974
295.9666156
295.9289273
295.927028
295.9080732
295.7044361
295.6776051
295.6812261
295.6582571
295.4472884
295.4178476
295.4183135
295.3975359
295.179039
295.1472731
295.1429337
295.1270617
295.0975412
294.8868778
294.8809116
294.8680701
294.8423857
294.6490524
294.6472881
294.6308034
294.6030035
294.3966536
294.3966257
294.375973
294.341463
294.0897631
294.0870148
294.0646237
294.0239862
293.7223614
293.7149974
293.6928807
293.6483772
293.3079824
293.2966812
293.2751083
293.2275613
292.8578793
292.8416821
292.8226882
292.776503
292.4031577
292.3854755
292.3677126
292.3216909
291.950373
291.9281438
291.9152496
291.8767608
291.5561936
291.5327136
291.5265951
291.5029358
291.2718268
291.2483383
291.2444642
291.2416987
291.1659777
291.1560513
291.1463676
291.1615007
291.2337659
291.2499877
291.2509037
291.2421136
291.2425355
291.2420159
291.2134198
291.085388
291.0722536
290.7801857
290.7315314
290.6896465
290.3733784
290.3658454
290.1593226
290.0819322
290.0762731
290.0451537
290.0926604
290.124324
290.0818315
289.8811157
289.5270519
289.0311271
288.429162
287.7742466
287.1232347
286.5178997
285.977028
285.5038279
285.0948059
284.7431404
284.4405657
284.179783
283.9541961
283.7586075
283.5888136
283.441327
283.3131786
283.2018003
322.7817921
321.9900398
321.0831199
320.0535984
318.9045082
317.6572727
316.3564054
315.0592255
313.7975843
312.5213811
311.0838536
309.3424448
307.338492
305.3623579
303.7326927
302.577085
301.8285193
301.349189
300.9636674
300.5352404
300.0653903
299.6399759
299.356062
299.0674741
299.0348944
298.881739
298.7935478
298.7784347
298.8031217
298.8367259
298.8150431
298.8362985
298.8376325
298.7895792
298.8016066
298.7874453
298.7148961
298.7111571
298.7105747
298.6966402
298.6269361
298.6367288
298.6216596
298.612738
298.5343124
298.5361145
298.533355
298.5155439
298.3715494
298.3616669
298.3724644
298.3387245
298.0934259
298.0681699
298.0752844
298.0348836
297.6678592
297.6297171
297.6363274
297.5810301
297.0454886
296.9807675
296.9789696
296.9223565
296.3205051
296.2337999
296.2142626
296.1895052
295.7876841
295.7310603
295.7193968
295.7040964
295.4685869
295.437266
295.4355765
295.4194455
295.2482754
295.2269755
295.2299302
295.2104212
295.0294933
295.0052243
295.0043075
294.9876
294.7977978
294.7710959
294.764741
294.7534539
294.7269614
294.5441966
294.5364838
294.5277546
294.5045963
294.3351998
294.3331128
294.3188847
294.2925306
294.1025172
294.1030398
294.0830186
294.0486601
293.8044586
293.8019968
293.7798473
293.7392083
293.4423751
293.4352781
293.4132596
293.3687053
293.0329819
293.0220027
293.0004834
292.9527049
292.5882023
292.5719203
292.5535742
292.5080482
292.1471165
292.1290541
292.1131474
292.0702969
291.7310818
291.7090166
291.6994675
291.6675863
291.4134103
291.3902281
291.3904463
291.3783957
291.2510277
291.2347725
291.2337398
291.2452819
291.3342601
291.3395586
291.3294209
291.3651131
291.6022593
291.6397953
291.6449696
291.6468889
291.7330374
291.7335706
291.7224904
291.6633239
291.6549201
291.4430386
291.4045421
291.376643
291.1408567
291.1427756
291.0011875
290.9762513
290.9775906
290.9762142
291.0382754
291.0477684
290.9383339
290.6777365
290.261743
289.7052072
289.0411429
288.3216264
287.6067087
286.9431906
286.3498232
285.8265833
285.3687287
284.9705431
284.6254018
284.326561
284.0678976
283.8439243
283.6498824
283.4816588
283.3356999
283.2089416
322.74699
321.8800531
320.8859016
319.7551128
318.4890646
317.108127
315.6554316
314.182872
312.7074803
311.1577246
309.3839507
307.2974753
305.0535398
303.0118315
301.4746091
300.4739426
299.8669921
299.4752688
299.1288224
298.7403443
298.343749
298.0008361
297.8087919
297.6117391
297.5933085
297.5029508
297.4695894
297.4426106
297.5400411
297.5762313
297.57173
297.6507636
297.6560193
297.6770354
297.7031191
297.6931174
297.7064987
297.7195169
297.7225827
297.7173657
297.7534505
297.7747638
297.7611684
297.7577444
297.7635089
297.7746206
297.7734873
297.758669
297.682435
297.6811024
297.6947233
297.6630032
297.4719631
297.4556145
297.4662915
297.4245767
297.0801635
297.0471967
297.056802
296.9968754
296.4485755
296.3821285
296.3789758
296.3224936
295.7246544
295.6382152
295.6149878
295.5961397
295.2331639
295.1838714
295.1709045
295.1602984
294.9629771
294.9386844
294.9353957
294.923923
294.7850176
294.7696094
294.7699724
294.7558684
294.6052925
294.5866205
294.5823925
294.571775
294.4115879
294.3904849
294.3802962
294.3755388
294.2194395
294.198216
294.187384
294.1841522
294.1629967
294.0161402
294.0126555
294.0015196
293.9757234
293.798072
293.7979052
293.7793726
293.7444904
293.5047392
293.5011597
293.4804577
293.4397729
293.1488385
293.1407921
293.120279
293.0760433
292.7497697
292.7381234
292.718163
292.6707888
292.3188201
292.3016145
292.2855161
292.241577
291.9028998
291.8836349
291.8714523
291.8335001
291.5489346
291.5248696
291.5229858
291.5022678
291.33245
291.313096
291.3188583
291.3188043
291.3223707
291.3118901
291.3142654
291.3458712
291.6203329
291.6465171
291.6396759
291.6917942
292.0776906
292.1325238
292.1413632
292.1532478
292.30133
292.3030961
292.3060823
292.3001486
292.2960719
292.1657914
292.1435612
292.1251912
291.9777898
291.975031
291.8909543
291.886311
291.890599
291.9033138
291.9567576
291.918318
291.7475296
291.4361521
290.9728408
290.370702
289.6552089
288.8739514
288.0896571
287.3602207
286.7124239
286.1436747
285.6441216
285.2058568
284.8221354
284.4870737
284.1950154
283.9409793
283.7202471
283.5285332
283.3620085
283.2173021
322.7091402
321.7603397
320.6709429
319.4290907
318.0339278
316.5038509
314.878859
313.2027904
311.4771461
309.6178785
307.4981404
305.1205136
302.7465003
300.7816763
299.4435358
298.6427034
298.1707863
297.8433194
297.5327103
297.2007271
296.8919185
296.6352825
296.5217248
296.4031932
296.3940976
296.3373913
296.3398402
296.3036762
296.4375536
296.4645093
296.4778125
296.586776
296.5942464
296.6584684
296.6921595
296.6870644
296.7607118
296.7858661
296.791497
296.7933557
296.9067023
296.9357126
296.9245517
296.9245355
296.9954619
297.0133365
297.0135633
297.0014926
296.9798475
296.9860667
297.0010532
296.9723441
296.8303093
296.8226381
296.8358912
296.793081
296.4650943
296.4363194
296.4471209
296.3842635
295.8271907
295.7591819
295.7523381
295.6998168
295.1279343
295.0455403
295.0166905
295.0070985
294.6933463
294.6538923
294.6388021
294.6340847
294.4749999
294.4578339
294.4509005
294.4460046
294.3374807
294.3279083
294.3236707
294.316906
294.1960027
294.1830572
294.1737039
294.1710177
294.0404636
294.0252406
294.0099064
294.0130143
293.9920324
293.8666748
293.8519416
293.8547811
293.8347993
293.7061971
293.700314
293.6927287
293.6663239
293.4945911
293.4920887
293.4760992
293.4400569
293.2014668
293.1948399
293.1773402
293.136909
292.8550359
292.8444316
292.8274371
292.7843139
292.4750394
292.461471
292.4451065
292.3992572
292.0699845
292.0508584
292.0390077
291.9980512
291.6993327
291.6761362
291.6721821
291.6439016
291.4365187
291.4131097
291.4189454
291.4101541
291.3384453
291.3215859
291.334738
291.3505437
291.5050444
291.5018606
291.508245
291.5616118
292.016817
292.0657415
292.0677484
292.1244328
292.6064474
292.6692911
292.6803117
292.6996819
292.8844588
292.8881643
292.8981945
292.9281961
292.9273645
292.8672999
292.8594808
292.8486119
292.7776249
292.7691212
292.7290836
292.7343132
292.7390186
292.7543918
292.7928656
292.7055369
292.4909575
292.1445539
291.6556353
291.0304247
290.2851843
289.4559774
288.6023611
287.7938727
287.076101
286.4529818
285.9100242
285.4343069
285.0159235
284.6478288
284.3246114
284.041376
283.7938532
283.5779494
283.3898734
283.2261751
322.669758
321.6357439
320.4470662
319.0889243
317.5572205
315.8666584
314.0518954
312.1479169
310.1479637
307.9703476
305.5447848
302.9767141
300.6240272
298.8692084
297.8048131
297.1974075
296.8302456
296.5534097
296.2849465
296.0214031
295.7999913
295.6211446
295.5592729
295.4935806
295.4889526
295.4488961
295.46953
295.432441
295.561947
295.5744077
295.5990326
295.7066948
295.7142072
295.7939384
295.8269661
295.8268043
295.9277282
295.9582201
295.9648001
295.9706707
296.1240567
296.1537272
296.1474106
296.1497211
296.2583952
296.2808161
296.2820019
296.2714218
296.2869715
296.2980365
296.3116324
296.2877321
296.1834242
296.183533
296.1978258
296.1546919
295.8381841
295.8125306
295.8219027
295.7591577
295.2069251
295.138492
295.1238265
295.082335
294.5648576
294.492285
294.4588153
294.4591171
294.202928
294.1741224
294.1563199
294.1582076
294.0350772
294.0243788
294.0126594
294.0152366
293.9336489
293.9291238
293.919247
293.9206899
293.8277421
293.8200778
293.8051442
293.810774
293.7085693
293.6989157
293.6788831
293.6892449
293.5809757
293.5701401
293.5521607
293.5598972
293.5400589
293.4222932
293.4134489
293.4091126
293.3808777
293.2069091
293.2002393
293.1879045
293.1504049
292.9108704
292.8989759
292.8868752
292.8476076
292.5810469
292.5662622
292.5550997
292.5144104
292.2322774
292.2156341
292.2050147
292.1623254
291.8695239
291.846823
291.8422898
291.8078301
291.5750014
291.5467139
291.5545606
291.5393159
291.4162508
291.398542
291.408304
291.4106176
291.4530862
291.4329726
291.4588063
291.4954228
291.801001
291.810587
291.8212078
291.8893137
292.4817389
292.5476147
292.5611974
292.610848
293.1252489
293.1868382
293.1985774
293.2226382
293.4239826
293.429817
293.4435126
293.5010356
293.5026673