/*--------------------------------*- C++ -*----------------------------------*\
| =========                 |                                                 |
| \\      /  F ield         | OpenFOAM: The Open Source CFD Toolbox           |
|  \\    /   O peration     | Version:  2206                                  |
|   \\  /    A nd           | Website:  www.openfoam.com                      |
|    \\/     M anipulation  |                                                 |
\*---------------------------------------------------------------------------*/
FoamFile
{
    version     2.0;
    format      ascii;
    arch        "LSB;label=32;scalar=64";
    class       volScalarField;
    location    "0";
    object      TMean;
}
// * * * * * * * * * * * * * * * * * * * * * * * * * * * * * * * * * * * * * //

dimensions      [0 0 0 1 0 0 0];

internalField   nonuniform List<scalar> 
31329
(
322.8269959
322.1334183
321.3468924
320.499864
319.9029196
319.6442178
319.4345274
319.2281312
319.0170655
318.8113621
318.6127038
318.4115875
318.2055822
318.0434367
317.8621809
317.6837672
317.4682159
317.1134479
316.5097713
315.8066616
314.9896771
314.0447761
313.0186988
312.2626741
312.0702081
311.1021926
310.294143
310.0174669
309.1917636
308.8782742
308.8408218
308.0534639
307.9899362
307.24741
307.0318374
306.9914013
306.1466884
305.925487
305.8754638
305.7631258
304.7739825
304.61005
304.6001439
304.5123717
303.6476731
303.5088494
303.4851881
303.4493239
302.795014
302.6792116
302.6403502
302.6061904
302.0219142
301.8990746
301.8576311
301.8229909
301.2605686
301.1331518
301.0830042
301.0714176
300.6117588
300.5122645
300.4766422
300.4542852
300.0171622
299.9192933
299.8848234
299.8608601
299.4292
299.3306461
299.2956431
299.2731611
298.8648479
298.7679358
298.7320659
298.7162398
298.3581744
298.2748261
298.2528283
298.2255685
297.8750608
297.7912491
297.7793323
297.7413591
297.3964739
297.3117265
297.319305
297.2632597
296.94404
296.8645129
296.8704645
296.819163
296.7729621
296.4509624
296.4370694
296.4070839
296.3603645
296.043372
296.0187583
295.9990396
295.9525495
295.6371445
295.6081852
295.5922421
295.5448017
295.2281533
295.1965012
295.1825323
295.1346617
294.8178097
294.7852126
294.7718184
294.7233528
294.4045107
294.3721013
294.3579118
294.3073814
293.969657
293.9424459
293.9193322
293.8513503
293.4447776
293.4011707
293.3838876
293.3198258
292.8975397
292.8528481
292.8367273
292.7770945
292.3181028
292.2655887
292.2497689
292.1898531
291.6638578
291.5842706
291.5629712
291.5015891
290.9593911
290.8712873
290.8467466
290.7579731
290.2741694
290.2410543
290.1603125
289.7302541
289.698317
289.2901632
289.2435015
289.1213578
288.6979671
288.5669208
288.1373707
287.6942512
287.6075942
287.2312915
286.7957045
286.3000937
285.8696295
285.4902242
285.1585858
284.9678577
284.8467456
284.7410486
284.6492178
284.5572547
284.4521412
284.3593235
284.2767749
284.1908618
284.1019202
284.0215897
283.9472727
283.8686844
283.7277036
283.5420745
283.3711093
283.2203435
322.8304497
322.146853
321.3830611
320.5823848
319.8946588
319.399461
318.9862175
318.6058829
318.2478719
317.9236237
317.6440986
317.407818
317.2138402
317.0874971
316.9890631
316.8711751
316.7051755
316.3975417
315.8554543
315.2076952
314.4365757
313.5297262
312.6781872
311.8613753
311.7305864
310.7876246
309.8632482
309.6678561
308.7941048
308.6075838
308.5482916
307.7756084
307.7342803
306.9149764
306.789781
306.751147
305.8287495
305.6916203
305.6600117
305.553726
304.5143924
304.4186907
304.4022151
304.3196122
303.4137587
303.3302436
303.314045
303.2718121
302.5789252
302.5080487
302.4898092
302.4495366
301.8148312
301.7375181
301.7175917
301.6785449
301.0626805
300.9804421
300.9544462
300.9328223
300.4356203
300.3734775
300.3572586
300.3289061
299.8495883
299.7874697
299.7715137
299.7433779
299.2690003
299.2055191
299.1885615
299.1629131
298.7123132
298.6490596
298.6302854
298.6111246
298.2178178
298.1642499
298.1523203
298.128408
297.740088
297.6853665
297.6737981
297.6496076
297.2665592
297.2104456
297.1969259
297.1761843
297.1269572
296.7689831
296.7556798
296.737278
296.6930231
296.3615673
296.3496518
296.3312625
296.2872873
295.9594177
295.9453076
295.9291917
295.8863725
295.5601954
295.544648
295.5299392
295.4874633
295.1593944
295.1421638
295.1288714
295.087132
294.7580134
294.739787
294.7272461
294.6857644
294.3525299
294.3339341
294.3210711
294.2780474
293.9238368
293.908253
293.8894702
293.8329509
293.3956413
293.3678343
293.3533247
293.2999715
292.8472151
292.8184271
292.8048795
292.7551459
292.2614013
292.2258686
292.2149062
292.166188
291.5953453
291.5384122
291.5253518
291.4765766
290.8932728
290.8314971
290.8142945
290.7424404
290.235899
290.2142965
290.1492408
289.7024602
289.6799691
289.2578048
289.2253631
289.1303112
288.6863805
288.5899774
288.1463943
287.7105426
287.6505592
287.2742825
286.8664842
286.4088208
286.0159817
285.6635659
285.3502938
285.1458084
284.9905858
284.8518493
284.730652
284.614735
284.4940104
284.3858062
284.2872575
284.1881624
284.0885245
283.9940414
283.9004149
283.7958068
283.6570471
283.4986614
283.3481981
283.2132504
322.8277547
322.1390692
321.3703841
320.5542401
319.7689636
319.0768937
318.4561206
317.883766
317.3585748
316.8994608
316.528932
316.2530559
316.0716121
315.9878076
315.9516418
315.9001359
315.7883784
315.5316302
315.0560912
314.4693648
313.7479383
312.8804037
312.0439664
311.2368873
311.1079409
310.1874938
309.2958817
309.1102101
308.2709853
308.0958416
308.0347455
307.2870365
307.2468779
306.4520409
306.3300692
306.2925647
305.4022589
305.2691504
305.2386231
305.1372167
304.1397837
304.0483187
304.0319979
303.9530492
303.0836187
303.0037183
302.9880485
302.9467233
302.2749139
302.2059274
302.1886539
302.1490581
301.5321245
301.4565255
301.4374293
301.3995224
300.803919
300.7243094
300.6998758
300.678084
300.1946875
300.1341172
300.11912
300.0905929
299.6222222
299.5612213
299.5463404
299.5182061
299.055772
298.9936667
298.9780643
298.9521731
298.5134253
298.4517224
298.4346886
298.4146739
298.0300625
297.9775044
297.9670704
297.9423812
297.5619411
297.508087
297.4977433
297.4730856
297.0989635
297.0439952
297.0316809
297.0105137
296.6644761
296.6127946
296.6006695
296.5817961
296.538657
296.2146233
296.203815
296.1850221
296.1423553
295.8229791
295.8099802
295.7935917
295.7523603
295.4367356
295.4222649
295.4075076
295.3668847
295.0515363
295.0354204
295.0222051
294.9823602
294.6668197
294.649813
294.6372572
294.5972611
294.2754513
294.2581053
294.2449282
294.2024465
293.8540529
293.8390519
293.8201218
293.7639448
293.3295052
293.3022395
293.287381
293.2337444
292.7794988
292.7509307
292.7369558
292.6864777
292.1872358
292.1510425
292.1399598
292.0911865
291.5184303
291.4608305
291.4474029
291.3997525
290.824347
290.7632224
290.7463389
290.6763671
290.1818115
290.160746
290.0972143
289.6619805
289.6398471
289.2250843
289.192441
289.1010387
288.672727
288.5838022
288.1693804
287.7670831
287.711177
287.3631092
286.9815007
286.5757454
286.2292042
285.9058081
285.6056775
285.3750175
285.1727268
284.9903896
284.83184
284.6863246
284.5453143
284.418388
284.3017311
284.18764
284.0752113
283.9660277
283.8556818
283.7362769
283.6010923
283.4601167
283.3266883
283.2064543
322.8163825
322.1023407
321.2998205
320.4282188
319.5317646
318.6588865
317.8283022
317.0480327
316.3357359
315.7251795
315.253873
314.9344197
314.7662585
314.7319247
314.7667625
314.7897516
314.7398539
314.5411694
314.1397621
313.6233803
312.9597613
312.1370052
311.3196418
310.5241525
310.3974547
309.5037847
308.6488882
308.4739723
307.6738123
307.5116655
307.4484
306.7291256
306.6903126
305.923454
305.8054128
305.7690722
304.9154866
304.7871373
304.7578666
304.6618769
303.7121382
303.6257178
303.6093895
303.5345107
302.7063495
302.6306164
302.6155409
302.5751877
301.9273639
301.8605717
301.8445398
301.8055606
301.2089855
301.135411
301.1174311
301.0806295
300.5080615
300.4314833
300.408986
300.3868278
299.91913
299.8603826
299.8469315
299.8180435
299.3622069
299.302524
299.2890221
299.2607307
298.8119531
298.7514588
298.7375237
298.7112252
298.2859594
298.2260498
298.2110463
298.1900059
297.8153075
297.7639288
297.7551624
297.7296236
297.3582012
297.3053702
297.2963342
297.2712322
296.907285
296.8536502
296.8426226
296.8210559
296.4845476
296.434133
296.4232676
296.4039388
296.3620513
296.0464946
296.0368769
296.0176957
295.9764998
295.6668115
295.6550619
295.6383803
295.5989363
295.295319
295.2821177
295.2672624
295.2287302
294.9278407
294.9130614
294.8998676
294.8621696
294.562089
294.5465347
294.5339029
294.4956045
294.1868843
294.1710156
294.1574374
294.115591
293.7739872
293.7597078
293.7405671
293.6847857
293.2537489
293.2271461
293.2118553
293.1579009
292.7021113
292.6738284
292.6593464
292.6080479
292.1029399
292.0660236
292.0548118
292.0060347
291.4319927
291.3737384
291.3599338
291.3136202
290.7485117
290.6883037
290.6718183
290.6041295
290.1248586
290.1044824
290.0428497
289.622862
289.6012697
289.1985992
289.165741
289.0795832
288.6730365
288.5940387
288.2169879
287.8580216
287.8075629
287.4977287
287.1540112
286.810935
286.5136002
286.2155141
285.9163238
285.6457498
285.3862168
285.1523573
284.9506092
284.7712948
284.6060007
284.4576772
284.3213959
284.1908129
284.0640805
283.9405388
283.8168602
283.6894072
283.5579391
283.4287708
283.3085567
283.2006398
322.7952838
322.0344168
321.1719261
320.2159995
319.1923868
318.1396846
317.0947031
316.0923202
315.1747068
314.3978093
313.8177072
313.4518853
313.297782
313.3183922
313.4305597
313.5331574
313.5501612
313.4151396
313.0947198
312.6584476
312.061848
311.2901001
310.4967855
309.7154284
309.5915147
308.7296802
307.9156862
307.7525081
306.995974
306.8483211
306.7826411
306.0953269
306.0580508
305.3230413
305.2098132
305.1746319
304.3628638
304.2401623
304.2123501
304.1222888
303.2264574
303.1460273
303.1294571
303.0590375
302.2771713
302.2062105
302.191796
302.1524567
301.5317175
301.4674631
301.4530074
301.4145409
300.8412088
300.7700371
300.7535311
300.7177387
300.1711817
300.0980884
300.0779617
300.055182
299.6051942
299.5485508
299.5370089
299.5075442
299.0660152
299.0078941
298.9961019
298.9674807
298.53426
298.4756573
298.4637041
298.4368411
298.0268172
297.9689788
297.9562668
297.9340649
297.5706033
297.5206015
297.5136298
297.4872233
297.1260928
297.0744754
297.0667924
297.0413177
296.6889147
296.6368346
296.6271322
296.6052446
296.5603637
296.230542
296.220974
296.201258
296.1607586
295.8548382
295.8464613
295.82695
295.7873901
295.4887001
295.4783096
295.4613538
295.423899
295.1338587
295.1221083
295.1071291
295.070929
294.7863526
294.7731414
294.7599178
294.7246276
294.4420191
294.4281714
294.415397
294.3790265
294.0852369
294.0711012
294.0570254
294.015929
293.6822908
293.668903
293.6494764
293.59416
293.1672435
293.1414558
293.1256352
293.0713345
292.6140988
292.5861822
292.5711116
292.5189432
292.00796
291.9702737
291.958933
291.9102778
291.3364935
291.277689
291.2635059
291.2188584
290.6678887
290.6090276
290.5930667
290.5282629
290.0693441
290.0498687
289.9907816
289.5919779
289.5712561
289.1887942
289.1556756
289.0774544
288.7023387
288.636903
288.30885
288.0073384
287.9644013
287.7065501
287.416771
287.1460773
286.8955145
286.6119103
286.2938861
285.9656582
285.6369856
285.3425029
285.0908973
284.8728747
284.6788337
284.5061285
284.3484985
284.2000278
284.0580337
283.9209974
283.786943
283.6549506
283.5265514
283.4054276
283.2947859
283.1961845
322.7650862
321.9378923
320.9936215
319.9314014
318.7651468
317.5262725
316.2603027
315.0242136
313.8874869
312.9342809
312.2415712
311.8289682
311.6892456
311.7663024
311.9559646
312.1360654
312.2186193
312.1482875
311.9129355
311.5656096
311.0458164
310.3318671
309.568678
308.8049612
308.6845261
307.8603219
307.0915465
306.940926
306.2323244
306.1003507
306.0322365
305.3802931
305.3447561
304.6457614
304.5384272
304.5043542
303.739858
303.6238563
303.5977307
303.5140409
302.6785522
302.6051787
302.588064
302.5224295
301.7918392
301.7262944
301.7126053
301.6742896
301.0838523
301.0225206
301.010024
300.9719274
300.425002
300.3566929
300.3420807
300.3071382
299.7896808
299.7205753
299.7032889
299.6795911
299.2493851
299.195157
299.1858934
299.1556367
298.7303767
298.6741154
298.6643547
298.6352499
298.2196597
298.1632822
298.1535886
298.1260467
297.7331208
297.6776686
297.6674427
297.6440147
297.2932033
297.2448092
297.2396839
297.212476
296.8630523
296.8128843
296.8065341
296.7808346
296.4414525
296.3911885
296.3827735
296.3607279
296.3175981
295.9997638
295.9914513
295.9715033
295.9325208
295.637504
295.6303548
295.6106439
295.5728795
295.2866148
295.27764
295.2604928
295.2252191
294.9504187
294.9402634
294.9251815
294.8915428
294.6251961
294.6137712
294.6004888
294.5678576
294.3047837
294.2929
294.279924
294.2457202
293.9688323
293.9567011
293.9420332
293.9018279
293.5775805
293.5652843
293.545492
293.4907338
293.0689303
293.044143
293.0276885
292.9730286
292.514732
292.4872753
292.4715494
292.4185181
291.9023368
291.863867
291.8524157
291.8041352
291.2336923
291.1746006
291.1600387
291.1175864
290.5868538
290.5300176
290.5147854
290.4537905
290.0230008
290.0047088
289.949284
289.580988
289.5616908
289.2123736
289.1789304
289.1128074
288.7834385
288.736681
288.4728619
288.2472386
288.2145923
288.0243874
287.8061146
287.6108115
287.3951992
287.106768
286.744808
286.3402943
285.9302573
285.5655949
285.257111
284.9949849
284.7674061
284.567064
284.386126
284.2184458
284.0606256
283.9109412
283.7683371
283.6329975
283.5063145
283.390113
283.285633
283.1932059
322.7276635
321.8188547
320.7764325
319.592123
318.2710003
316.8389759
315.3470666
313.87143
312.5103641
311.3801294
310.5783864
310.1223608
309.995971
310.1240559
310.3806856
310.6239343
310.7594116
310.7460817
310.5939054
310.3410855
309.9071257
309.2577665
308.5318569
307.7905437
307.6744638
306.8941931
306.1748906
306.0373233
305.3803489
305.2646964
305.1944776
304.5809682
304.5473755
303.8887139
303.7885508
303.7554917
303.043843
302.9357505
302.9115593
302.834562
302.06574
302.0005544
301.9825519
301.9219199
301.2472293
301.1877567
301.1748521
301.1375291
300.5806306
300.5226512
300.5125131
300.4746271
299.9574921
299.8926001
299.8803294
299.8460309
299.3607274
299.2961519
299.2821593
299.2572447
298.84887
298.7973969
298.7907292
298.7595185
298.352669
298.2986328
298.2911617
298.2614889
297.8657395
297.8119808
297.804733
297.776489
297.4025585
297.3498469
297.3421859
297.3175828
296.9809024
296.9343869
296.9310419
296.9032246
296.5670665
296.5186411
296.5134956
296.487837
296.1630391
296.1149005
296.1076083
296.0857008
295.7853619
295.7400718
295.7328374
295.7129546
295.6756003
295.3928749
295.3868285
295.3671706
295.3313431
295.0590579
295.0514605
295.0343102
295.0013811
294.7435499
294.7350565
294.7199774
294.6890905
294.4428663
294.4333958
294.4200776
294.3903137
294.148744
294.139051
294.1258458
294.094034
293.8360389
293.8261724
293.8108428
293.7717015
293.4585737
293.4475911
293.4273657
293.3732932
292.9579934
292.934421
292.9172402
292.8622426
292.4037874
292.3768871
292.3604866
292.3067059
291.7872186
291.7480149
291.7365026
291.6890589
291.1275166
291.0686592
291.0536995
291.0143031
290.513319
290.4595438
290.4453685
290.3896062
289.9986653
289.9819149
289.9320174
289.6081755
289.5911721
289.2944737
289.2606224
289.21262
288.9484628
288.926473
288.7441146
288.6141443
288.5947797
288.4846235
288.3503315
288.2196329
288.015943
287.6982006
287.2684437
286.7724611
286.2699372
285.8257746
285.4535641
285.1418927
284.8759561
284.6445718
284.4381618
284.2498493
284.0756011
283.9135646
283.7628948
283.6237675
283.4968066
283.3825312
283.28098
283.1916754
322.6856352
321.6855468
320.5350296
319.2197442
317.7377771
316.1108568
314.3948485
312.6840579
311.1064344
309.8112687
308.9136677
308.4219543
308.3051522
308.4693522
308.7684107
309.0451168
309.2061174
309.2297183
309.149223
308.9900333
308.6477818
308.0689294
307.3882545
306.6755559
306.564884
305.8349057
305.1688838
305.0443461
304.441663
304.3421714
304.2706572
303.6980603
303.6666063
303.0524804
302.9609082
302.9287497
302.2752299
302.1763693
302.1543644
302.0842009
301.3877547
301.3318385
301.3126305
301.257061
300.6421441
300.5893718
300.5773014
300.5408984
300.0206784
299.9665302
299.9591027
299.9213007
299.4374381
299.3766187
299.3670975
299.3332336
298.8828832
298.8233988
298.8130501
298.7866896
298.4020686
298.3537169
298.3498264
298.3176322
297.931492
297.8801285
297.8750663
297.8448786
297.4712485
297.4205675
297.4157908
297.3869735
297.0339038
296.9843278
296.9791309
296.9535781
296.6325532
296.5882374
296.586428
296.5583788
296.2371918
296.1908777
296.1866376
296.1614653
295.8528756
295.8072307
295.8006943
295.7794281
295.7401329
295.4508076
295.4442551
295.4249609
295.3893165
295.1204315
295.115174
295.0960237
295.0622417
294.8056515
294.7992306
294.7824403
294.7519651
294.5128697
294.5059646
294.491137
294.4631144
294.2387424
294.2312861
294.2180524
294.1912705
293.9728513
293.9654873
293.9520958
293.9228448
293.6855543
293.6781458
293.6621544
293.624286
293.3243338
293.3148879
293.2942053
293.2409937
292.8341601
292.8120258
292.7940771
292.7388349
292.2820266
292.2557605
292.2387737
292.1845439
291.6656773
291.6258977
291.6144268
291.5686147
291.0253733
290.9676759
290.9522392
290.9172893
290.4604987
290.4113183
290.3987149
290.3503333
290.01593
290.0011386
289.9597142
289.7005613
289.6871504
289.4692597
289.4354695
289.4128802
289.2365791
289.243907
289.1578325
289.1365139
289.1323696
289.1030616
289.050369
288.957472
288.7381235
288.3717844
287.8608186
287.2650347
286.6602725
286.1268976
285.6840021
285.3175463
285.0087463
284.7429684
284.5087624
284.298196
284.1064834
283.9313774
283.7717367
283.6271813
283.4974708
283.3821657
283.280513
283.1914922
322.6419946
321.5473466
320.2859944
318.8388434
317.1986268
315.3842266
313.4567328
311.5283744
309.7565515
308.321361
307.349034
306.8310825
306.7155088
306.8956585
307.1960293
307.4634987
307.6096235
307.6378565
307.6062404
307.5304419
307.2798887
306.7752388
306.147966
305.4715811
305.3674952
304.6933366
304.0831886
303.9708812
303.4237174
303.3391817
303.2677852
302.7378499
302.7087011
302.1427697
302.0612063
302.0298733
301.438845
301.3505483
301.3309563
301.2675368
300.6478619
300.6020615
300.5814684
300.5308232
299.978363
299.9328305
299.9216323
299.8860493
299.4054308
299.3556474
299.3511337
299.3134043
298.8661834
298.8101844
298.803672
298.7701081
298.3569587
298.3031109
298.2965295
298.2686708
297.9094862
297.864647
297.8634691
297.830498
297.4674803
297.4193334
297.4165684
297.386139
297.0368711
296.9897914
296.9872634
296.9582305
296.6277715
296.581768
296.5786704
296.5526478
296.2488351
296.2071055
296.2063225
296.1786908
295.8743374
295.8306
295.8267048
295.8027342
295.51202
295.4693118
295.4628527
295.4430475
295.4057454
295.1332267
295.1266213
295.1087896
295.0748969
294.8216593
294.8165703
294.7987086
294.7670326
294.5280881
294.5223764
294.5065911
294.4785933
294.2599941
294.2543712
294.2402714
294.2150923
294.0138845
294.0083075
293.9954387
293.9715979
293.7772971
293.7722252
293.7588157
293.732183
293.5169278
293.5120156
293.4954973
293.4591387
293.1747595
293.1670234
293.1459628
293.0938459
292.6982151
292.677708
292.659073
292.6038153
292.1519637
292.1263535
292.1090761
292.0550086
291.5440074
291.5039859
291.4927436
291.4498713
290.9400565
290.8850603
290.8689405
290.8406282
290.4484027
290.4059311
290.3956593
290.3577217
290.1026599
290.0902084
290.0618746
289.8931214
289.8850559
289.7732464
289.7422573
289.7500962
289.6820943
289.7184577
289.7333442
289.8143555
289.8243103
289.86012
289.8673233
289.7815466
289.5302841
289.1128306
288.5234236
287.8274264
287.1114366
286.475882
285.952609
285.5252625
285.1692057
284.8658095
284.6013814
284.3666322
284.1558439
283.9660663
283.7955169
283.6431056
283.507826
283.3885325
283.2839127
283.1925493
322.5997375
321.4136588
320.0459619
318.4741454
316.6872817
314.7028172
312.5873977
310.4703229
308.5363682
306.9915188
305.9649202
305.4249679
305.2941986
305.4532103
305.7176441
305.9326956
306.0243986
306.0211494
306.0082472
305.9959408
305.829385
305.3989137
304.8324877
304.2011093
304.1047735
303.4895784
302.9358922
302.8336409
302.3416322
302.269643
302.2005248
301.7141958
301.6874727
301.1721937
301.1017856
301.0713365
300.5455063
300.4689494
300.4519257
300.394892
299.8541459
299.8188129
299.7969489
299.7508738
299.2619261
299.2239989
299.2136997
299.1788504
298.7404105
298.6955784
298.6938997
298.6564585
298.2488243
298.1984446
298.1949092
298.1616979
297.7871368
297.739404
297.7363348
297.7072428
297.3748472
297.3339368
297.3350339
297.3018507
296.9644113
296.9201288
296.9192116
296.8891305
296.5662933
296.5233937
296.5225387
296.4939735
296.1876907
296.1457399
296.1440059
296.1183543
295.8333638
295.794693
295.7940529
295.7678736
295.4824035
295.4418294
295.4373432
295.4156768
295.1445665
295.1053307
295.0978258
295.080757
295.0454257
294.7917667
294.7838942
294.7689028
294.7367669
294.5013919
294.4954208
294.4800923
294.4505317
294.2314827
294.2256474
294.2118964
294.1862902
293.9897683
293.9848147
293.9721979
293.949645
293.7721154
293.7679718
293.7559792
293.7348113
293.5644679
293.5613503
293.5482978
293.5241658
293.3314168
293.3287575
293.3120817
293.2774948
293.0113541
293.00537
292.9841979
292.9334926
292.5529015
292.5340854
292.515092
292.4602836
292.0190576
291.9939918
291.9770931
291.9243211
291.4336254
291.3939655
291.3832727
291.3454261
290.891226
290.841279
290.8241782
290.8055545
290.5044496
290.4711068
290.464232
290.4411319
290.2926748
290.2829686
290.2737086
290.2187424
290.2176473
290.2307027
290.2070685
290.2450292
290.2935687
290.348761
290.4518964
290.605047
290.6241576
290.6993215
290.7379492
290.6443129
290.3653915
289.9119093
289.2617601
288.4755401
287.6436686
286.8888812
286.2683231
285.7695116
285.3600319
285.015181
284.7177965
284.4565868
284.2245808
284.0178715
283.8339134
283.6709006
283.5271828
283.4010735
283.2908347
283.194733
322.5613538
321.2923168
319.8287577
318.1460577
316.2311956
314.1012688
311.8279538
309.5551132
307.4905356
305.8590864
304.7857035
304.2154356
304.0460755
304.1495676
304.3416621
304.4736374
304.4874828
304.4308561
304.4100473
304.4363733
304.3387034
303.9778302
303.4773561
302.899039
302.8112325
302.254197
301.7552598
301.6593352
301.2202987
301.1571504
301.0932659
300.650133
300.6258663
300.1620032
300.103205
300.0739688
299.613482
299.5494624
299.5350337
299.4837577
299.0209207
298.9955865
298.9730377
298.9309865
298.5046388
298.4744068
298.4650251
298.4308982
298.0366183
297.9973526
297.9980092
297.9614194
297.59546
297.5514586
297.5504285
297.5179473
297.1823189
297.1410581
297.1407197
297.1111299
296.8065479
296.7700076
296.7724478
296.7400979
296.4306217
296.3909406
296.3909789
296.3622507
296.067595
296.0294814
296.0292595
296.0022804
295.7215386
295.6841596
295.6825717
295.6586124
295.3941828
295.3591441
295.3572884
295.3340941
295.0698067
295.033113
295.0266355
295.0088615
294.7592208
294.7240909
294.7139041
294.7013864
294.6679829
294.4356733
294.4248282
294.4145897
294.3842195
294.1694034
294.1610922
294.1499912
294.1225337
293.9257229
293.9186432
293.9082412
293.8848361
293.7113319
293.7061655
293.695975
293.6756346
293.5209865
293.5174798
293.5070798
293.488084
293.3400049
293.3380968
293.3260299
293.3040819
293.1331184
293.1320473
293.1159148
293.0833839
292.8383063
292.8338532
292.8131483
292.7643343
292.4042345
292.3869378
292.3683204
292.3148061
291.8935271
291.8686267
291.853402
291.8038859
291.3523199
291.3140121
291.3043653
291.2745211
290.905555
290.8637451
290.8453796
290.8401684
290.6599634
290.6380924
290.6358937
290.6329875
290.6141977
290.6080244
290.6220305
290.6912903
290.6978034
290.8300195
290.8210563
290.8782524
291.0294199
291.085477
291.2483266
291.4340012
291.4569558
291.5493964
291.6027803
291.5049822
291.2170502
290.7519051
290.0712658
289.2202891
288.2820933
287.3941826
286.6514457
286.0612725
285.5863273
285.1930864
284.8585265
284.567832
284.3119849
284.0857739
283.8857522
283.7094214
283.5545774
283.4190899
283.3008701
283.1979115
322.5281976
321.1875454
319.6416437
317.8647972
315.8430956
313.5939189
311.1927788
308.7942382
306.6229391
304.914703
303.7875253
303.1695517
302.9405654
302.9561851
303.0502561
303.0850789
303.0191931
302.9103575
302.8718705
302.9149751
302.866476
302.5662255
302.1319359
301.6118015
301.5325156
301.0285285
300.5802617
300.4868853
300.0958058
300.036567
299.9811829
299.5784243
299.5564757
299.1425313
299.0947604
299.067406
298.6694188
298.6179901
298.6059862
298.5596925
298.1699518
298.1530527
298.1310109
298.092346
297.7256257
297.7027899
297.6943389
297.6610653
297.3119168
297.2787681
297.2807205
297.2459876
296.9224561
296.8854177
296.8858413
296.8549562
296.5575275
296.52294
296.5239425
296.495185
296.2192656
296.1875515
296.1898536
296.1599315
295.8805628
295.8462351
295.8458435
295.8199439
295.5548093
295.5220458
295.5209024
295.4971301
295.2431504
295.2108629
295.2077067
295.1872817
294.9454155
294.9146544
294.9097824
294.8915907
294.6510669
294.6190434
294.6088464
294.5969196
294.370831
294.3404668
294.3257518
294.3198536
294.1091218
294.0802649
294.0647439
294.0612177
294.0327285
293.8412371
293.8292508
293.8239537
293.7986221
293.625652
293.6163743
293.6103819
293.5889348
293.437917
293.4316704
293.4246638
293.4060302
293.2717416
293.2678912
293.2597822
293.2423515
293.1132567
293.1114784
293.101171
293.0809769
292.9300413
292.9294129
292.9148855
292.8847313
292.663791
292.6602128
292.6410311
292.5949043
292.2630742
292.2467862
292.2298711
292.1791583
291.791282
291.766006
291.7543337
291.7109958
291.3243663
291.2887451
291.2808171
291.2627376
291.0116417
290.9813396
290.962041
290.9736197
290.9391278
290.9305774
290.9339886
290.9547979
291.0736878
291.0720842
291.1086239
291.2857794
291.2986145
291.5180496
291.5269199
291.5871676
291.8024181
291.8485748
292.03797
292.228646
292.2526793
292.3517008
292.4143691
292.3227497
292.0458166
291.5970902
290.9266184
290.0539416
289.0420274
288.0250964
287.1364638
286.4250468
285.8623948
285.4066627
285.0264396
284.7009505
284.4175633
284.1687269
283.9498821
283.7576195
283.58917
283.4419913
283.3136787
283.2019757
322.5006365
321.1004896
319.486429
317.6323015
315.5239473
313.1791053
310.6754994
308.1741766
305.9105793
304.1255316
302.9315842
302.2518571
301.9344444
301.8456414
301.8302651
301.7717923
301.6400849
301.4997717
301.4533452
301.5017169
301.481528
301.2287137
300.853801
300.3919753
300.3203293
299.8615235
299.4575149
299.3638342
299.0122485
298.9521353
298.9073505
298.539686
298.5196611
298.1517668
298.1131561
298.0886524
297.7472233
297.7074052
297.6974393
297.6554812
297.3307801
297.3196341
297.2998544
297.2640529
296.9522036
296.9359541
296.9284433
296.8963932
296.5919706
296.565222
296.5668798
296.5354807
296.2534552
296.2236014
296.2238199
296.1959737
295.9351277
295.9071848
295.907564
295.8816055
295.6351119
295.6086261
295.6089074
295.5834402
295.3358448
295.3074498
295.3048857
295.2836539
295.0489444
295.0219081
295.0179738
294.9993697
294.7733194
294.7465077
294.7398714
294.7250825
294.5080868
294.4821718
294.4725356
294.4613709
294.2473022
294.2205866
294.2053076
294.2008546
294.0004459
293.9752964
293.9550402
293.9570208
293.9278518
293.7461584
293.725455
293.729386
293.7030886
293.5365686
293.5207063
293.5215303
293.4983784
293.3488879
293.3371723
293.3357058
293.3159395
293.1847374
293.1768416
293.1732362
293.1558149
293.037796
293.0326687
293.0273175
293.0108978
292.8966937
292.8938084
292.8860753
292.8673005
292.7344849
292.7328541
292.7212454
292.6939444
292.500924
292.4971225
292.481019
292.4389095
292.1455693
292.1296141
292.1161437
292.0704613
291.7335299
291.7072522
291.7014393
291.6681816
291.3759916
291.344909
291.3394681
291.3365619
291.2292384
291.2130002
291.1944702
291.2236583
291.3453171
291.3510509
291.3600706
291.4033593
291.64061
291.6448231
291.6953572
291.9427075
291.9589496
292.2207434
292.2422597
292.2961758
292.5323473
292.5708449
292.7649042
292.9505302
292.9745899
293.074203
293.1381546
293.0600775
292.8086536
292.39991
291.7810457
290.9417584
289.9126175
288.8019448
287.7631305
286.9001562
286.2179632
285.6755222
285.2333686
284.8626488
284.5448478
284.2687204
284.0272546
283.8159734
283.6312023
283.4699003
283.3293188
283.2069429
322.4777534
321.0281882
319.3575356
317.4394809
315.2600306
312.8374506
310.2509167
307.6652742
305.3307357
303.4681347
302.1937217
301.4260508
301.010469
300.8101835
300.6923245
300.5598258
300.3896018
300.2467313
300.2070147
300.2579584
300.2471421
300.0254402
299.6962873
299.2866784
299.2209694
298.7987758
298.4303061
298.3357268
298.0131895
297.949025
297.9149779
297.5760513
297.5574079
297.23059
297.1981025
297.1774194
296.8848284
296.8544913
296.8460061
296.8082423
296.5386844
296.5300424
296.5144245
296.4813156
296.2184816
296.2074083
296.2008428
296.1707671
295.9091353
295.8885164
295.8881039
295.8617364
295.6188782
295.5958009
295.5938989
295.5708841
295.3445347
295.3227912
295.3204368
295.2995272
295.0830571
295.0618976
295.0583798
295.0393439
294.8243813
294.8020166
294.7956934
294.7808551
294.5769788
294.5556245
294.5473825
294.5356167
294.3385279
294.3171896
294.3057862
294.2981811
294.1082807
294.0874038
294.0723675
294.0691618
293.8837147
293.8624248
293.8422018
293.8453132
293.6720814
293.6520516
293.6272381
293.6362749
293.4744236
293.4552224
293.4308375
293.4407879
293.417047
293.2748313
293.2562456
293.2618801
293.2408487
293.1119457
293.0981682
293.1004407
293.0819922
292.9661193
292.9562123
292.9558331
292.9391893
292.8327295
292.8255113
292.8232153
292.8074702
292.7045767
292.6994373
292.6950535
292.6777093
292.5622801
292.5582967
292.5509156
292.5272941
292.3675641
292.3623158
292.3510657
292.3147941
292.0711875
292.055092
292.0467326
292.0090421
291.743331
291.7158489
291.7179481
291.6989188
291.5251262
291.5009085
291.498611
291.5120003
291.5599174
291.5583884
291.5429505
291.5873358
291.8508965
291.8712483
291.8845393
291.9421604
292.2568935
292.2666638
292.3200765
292.595236
292.6123157
292.8833573