/*--------------------------------*- C++ -*----------------------------------*\
| =========                 |                                                 |
| \\      /  F ield         | OpenFOAM: The Open Source CFD Toolbox           |
|  \\    /   O peration     | Version:  2206                                  |
|   \\  /    A nd           | Website:  www.openfoam.com                      |
|    \\/     M anipulation  |                                                 |
\*---------------------------------------------------------------------------*/
FoamFile
{
    version     2.0;
    format      ascii;
    arch        "LSB;label=32;scalar=64";
    class       volScalarField;
    location    "0";
    object      TPrime2Mean;
}
// * * * * * * * * * * * * * * * * * * * * * * * * * * * * * * * * * * * * * //

dimensions      [0 0 0 2 0 0 0];

internalField   nonuniform List<scalar> 
31329
(
3.115860454e-05
0.0002805839758
0.0008206618222
0.001781123705
0.003276270741
0.005431044992
0.008364280031
0.01211855494
0.01661822262
0.02162508629
0.02663625125
0.0308937933
0.03358275823
0.03424590174
0.04174634763
0.03633354589
0.02729813201
0.01758243813
0.01061622466
0.00831660162
0.009449892727
0.01079765086
0.0281174783
0.02209335659
0.02321379526
0.02225756733
0.01252679093
0.01217014118
0.008720403097
0.01114970797
0.009365889893
0.006953438886
0.007026420898
0.003441629431
0.004346736592
0.004012627461
0.001961738236
0.00240902555
0.002439840575
0.001980402759
0.001346178572
0.001587246329
0.001464848629
0.001218794371
0.0009874204789
0.001163220954
0.001158333811
0.0009735626242
0.0007679464896
0.0009140708372
0.0009921194858
0.0008350101768
0.0005550526795
0.0006658654819
0.0007278007462
0.0006142135586
0.0003762829199
0.0004490869407
0.000490944521
0.0004181271132
0.000270036028
0.000323805348
0.0003545443039
0.0003044993306
0.0002088923326
0.0002517877387
0.0002750743626
0.0002390314477
0.0001681427387
0.0002031920797
0.0002194800845
0.0001947442054
0.0001424038815
0.0001727174835
0.0001816913972
0.0001671220317
0.0001259412238
0.0001531897509
0.0001514141127
0.0001496733516
0.0001180654273
0.0001441518241
0.0001219520729
0.0001422512969
0.000118086814
0.0001446984183
7.48594299e-05
0.0001442831818
0.0001293707848
0.0001593723647
8.293130133e-05
0.0001605524645
0.0001320049515
0.0001860744216
0.0001600690642
0.0001890920172
0.0001552143792
0.0002089295788
0.0002122458702
0.0002137542425
0.0001743682358
0.0002034583031
0.0002213307135
0.0002093717951
0.0001704741936
0.0001811454555
0.0002022496556
0.0001881968086
0.0001566533012
0.0002346980802
0.0002669683585
0.0002484276832
0.0002136539004
0.0004801558725
0.0005602077211
0.0005145900594
0.0004368334264
0.0008719694904
0.00103322176
0.0009394661548
0.0007779764854
0.001095656787
0.001302874177
0.001183490015
0.0009668544429
0.0009775227338
0.001154837626
0.001059906179
0.0008772011754
0.0006761554307
0.0007956896682
0.0007968440984
0.0006655706381
0.0004090568225
0.000479435965
0.000516643916
0.0004328501687
0.0003734400221
0.0004539534334
0.0004474285077
0.0003580759565
0.0005622001744
0.0006102004072
0.0004725213139
0.0007377806879
0.0007288851026
0.0007034201517
0.0008275980774
0.000636883146
0.0006908260001
0.0006443497046
0.0008773276038
0.0007648786859
0.0007289881098
0.0008500697036
0.0004601709616
0.0005568892636
0.0007196965322
0.0008979004382
0.0009849208116
0.0009086310266
0.0007122425451
0.0005022371858
0.0003434245709
0.0002367123445
0.0001630793642
0.0001114181513
7.584648068e-05
4.035080201e-05
2.709137334e-05
1.739527215e-05
1.058347698e-05
5.987269105e-06
3.042456228e-06
1.30601984e-06
4.036555765e-07
3.931927495e-08
0.0002649997332
0.002576277257
0.007964257165
0.01752422431
0.03244945679
0.0540011805
0.08329129026
0.1207738881
0.1657128798
0.2157572787
0.2658531729
0.3084175132
0.3352888299
0.3420076254
0.3326340189
0.2804748493
0.2036100756
0.1263931319
0.07330302146
0.05490688612
0.05946897568
0.06469312705
0.07948546782
0.07123572914
0.07133225064
0.06185233113
0.04561474168
0.04188040774
0.03175458903
0.03119897225
0.03006748492
0.02054105622
0.02027632412
0.01230298432
0.01214669266
0.01185980625
0.007091317431
0.00695589759
0.006893964411
0.006491808656
0.004325656177
0.004322051732
0.00426973448
0.00405870049
0.003179064881
0.003248830215
0.003237227724
0.00309255186
0.002560946877
0.002644116379
0.002681389338
0.002552267057
0.001909596871
0.001947898811
0.001966365128
0.00187805778
0.001314202929
0.001324298858
0.001326767886
0.001281508749
0.0009416204955
0.0009565541151
0.0009588794213
0.0009306452758
0.0007264264584
0.0007445090134
0.0007461525381
0.0007274595074
0.0005860023104
0.0006026601609
0.0006001361544
0.0005914315909
0.0004963704039
0.0005133234085
0.0005057177107
0.000505977461
0.0004397638969
0.0004565628188
0.0004396940433
0.0004521980954
0.000412264979
0.0004304411497
0.0003966548398
0.0004286305408
0.0004125712894
0.0004330515051
0.0003589990668
0.0004340237716
0.0004176386818
0.0004771456112
0.0003974370121
0.0004811593659
0.0004656897889
0.0005566275885
0.0005193778455
0.0005626993242
0.0005416373233
0.0006252790669
0.0006140514988
0.0006306647838
0.0005978316095
0.0006134983469
0.0006140424198
0.0006160473586
0.0005801546293
0.0005568502433
0.0005528980714
0.0005618639451
0.0005525755683
0.0007258672274
0.0007248771774
0.0007516224502
0.0007874782595
0.001459311659
0.001510748152
0.001527894162
0.001560270089
0.002625936893
0.002777368859
0.002733105977
0.002648263937
0.003316995092
0.00350124347
0.003409270734
0.003200905632
0.002996258252
0.003105296941
0.003033636761
0.002841622214
0.002163238397
0.002207244692
0.002198163927
0.002073457297
0.001403394803
0.001397653095
0.00139342703
0.001355926211
0.001246271559
0.001284950397
0.001285754752
0.001263454807
0.001664665527
0.001703908699
0.001643896365
0.002138315684
0.002141864689
0.002288808485
0.0023508353
0.002252763235
0.002263334931
0.002308010553
0.002473920087
0.002404377989
0.002374522833
0.002452238419
0.002212645729
0.002802354887
0.00375942806
0.004864663274
0.005547497047
0.005337893976
0.004372410406
0.003218669969
0.00229344521
0.001643419133
0.001175993013
0.0008343340565
0.0005885731244
0.000396833173
0.0002667555527
0.0001715943945
0.0001045507815
5.920132389e-05
3.013317473e-05
1.296412665e-05
3.998182365e-06
4.00832505e-07
0.0007810203388
0.007745806201
0.02449403143
0.05465124238
0.1022468907
0.1711887724
0.264798828
0.3844715413
0.5278922112
0.6877082979
0.8475189855
0.9831837028
1.068890023
1.091277501
1.041173382
0.8761939274
0.634659388
0.3931534478
0.2272009112
0.1689484126
0.181435879
0.1959579244
0.2139347319
0.1953291339
0.1939313424
0.1657600631
0.1276127134
0.1171755123
0.08899792443
0.08398260106
0.08225103264
0.05568163606
0.05468700798
0.03448890327
0.03264942674
0.03212628112
0.01994110247
0.01882343841
0.01857330656
0.01787744951
0.01192916087
0.01159198896
0.0115698585
0.01121951234
0.008759547107
0.008747306385
0.008714401587
0.008486813
0.007086643015
0.00715202867
0.007179582738
0.006953746242
0.005313982205
0.005277401787
0.005262220274
0.00511485688
0.00366929515
0.003594324518
0.003551628599
0.003493794934
0.002627667197
0.002597588469
0.002569300916
0.002537515432
0.002025458546
0.002022020126
0.002001769546
0.001982563434
0.001634631396
0.001638023579
0.001614043141
0.001612090393
0.001384252223
0.001395609429
0.001366183766
0.001378731294
0.001226388717
0.001241731448
0.001198896735
0.00123194943
0.001148620505
0.001170184175
0.001104067215
0.001166706963
0.001147956569
0.001176283136
0.001057711127
0.00118007561
0.001250664671
0.001293948101
0.001169387073
0.001305735977
0.001297072186
0.001506811958
0.001440013497
0.001522937418
0.001503556739
0.00169126432
0.001665220495
0.001702538406
0.001651965661
0.00166327069
0.001650881573
0.001663492137
0.001601679202
0.001519312689
0.001483502444
0.001526243941
0.001542110703
0.001980802101
0.001939144355
0.002048082763
0.002220337512
0.003954952699
0.004026395035
0.004137122136
0.004362856938
0.007097489448
0.007397120918
0.007362686367
0.007318110538
0.008974414606
0.009320592215
0.009159752754
0.008779220324
0.008120760826
0.008250371633
0.008128093303
0.007749229311
0.00588940451
0.00586573853
0.005833526899
0.005601085282
0.00386998982
0.003746110849
0.003684645815
0.003675068479
0.003447431431
0.003465330346
0.003477486619
0.003536995614
0.004551769424
0.004621975625
0.004618749731
0.005847251517
0.005872369956
0.006388591382
0.006459219109
0.006376145877
0.006411643036
0.006566727266
0.006817582979
0.006743345921
0.006697800277
0.006828043368
0.006726345809
0.008530915531
0.01128754878
0.01441586911
0.01632997732
0.01573633244
0.01297012771
0.009598232118
0.006864417471
0.004928204904
0.003537594863
0.0025236499
0.001789566243
0.001234378418
0.0008316668391
0.0005363635428
0.0003273769253
0.0001855502778
9.456767293e-05
4.076428013e-05
1.257829717e-05
1.259046257e-06
0.001669831792
0.01664201151
0.05310800254
0.1197219384
0.2260811444
0.3811619802
0.5921529613
0.8615309601
1.183755814
1.542577175
1.899697221
2.201934342
2.393802065
2.448276308
2.327900126
1.963147576
1.42506951
0.8854512153
0.5125215709
0.3796914188
0.4052326262
0.4359381841
0.454744648
0.4177870788
0.4133350186
0.3508916486
0.2746426887
0.2528504503
0.1918629823
0.1784561992
0.1757444463
0.1187192619
0.1163693913
0.0745286651
0.06941897731
0.06851958193
0.04318932064
0.04018316128
0.0395803414
0.03842595375
0.02568572045
0.02469152593
0.02474618667
0.02418281575
0.01887051723
0.0186763646
0.01860471256
0.01825526816
0.01528909939
0.0152943729
0.01528909277
0.01491189669
0.01148079038
0.01128334008
0.01119366673
0.01095800584
0.007936019821
0.007689943146
0.007556120937
0.007488096726
0.005685491617
0.005562823807
0.005473055163
0.005442911796
0.004383370576
0.004332411736
0.004268383
0.004253696888
0.003539737046
0.003512329816
0.00344741944
0.003460607052
0.002998046646
0.002993561125
0.002925077775
0.002959949905
0.002656150172
0.00266384749
0.002578195035
0.002644524448
0.002485195615
0.002508065885
0.00239330323
0.00250161693
0.002479035039
0.00251654925
0.002336440008
0.002525330608
0.002693384858
0.002761424556
0.002577360354
0.002787022588
0.002795759178
0.00320818627
0.0031019852
0.00324202203
0.003231974719
0.003596508438
0.003550221756
0.003617688955
0.003542632295
0.003542150984
0.003506963357
0.003537258512
0.003436106642
0.003248833786
0.003153392589
0.003258206919
0.003325625491
0.004231751302
0.004111647037
0.004372514952
0.004800090604
0.008412242236
0.008506350075
0.008796455904
0.009392880453
0.01509027485
0.0156344043
0.01563419177
0.01569320507
0.01908425152
0.01969200768
0.01942403194
0.01876230048
0.01723144945
0.01736392024
0.0171643867
0.01647270532
0.012447923
0.01226890889
0.01219343409
0.01179442469
0.008212324407
0.007856619922
0.007681869681
0.007750489424
0.007431007815
0.00740767304
0.007444757784
0.007682092477
0.009892292489
0.01001622689
0.01014719264
0.01277201438
0.01284206328
0.0141301369
0.01420817858
0.01418742456
0.01434703373
0.01470961307
0.01513988141
0.01510808164
0.0150443391
0.01526667936
0.01553615537
0.0193657116
0.02470552085
0.03065324314
0.03423222153
0.03302767845
0.0274445205
0.02041974831
0.01463030018
0.01049164917
0.00753399939
0.005392138531
0.003836451618
0.002669185196
0.00180374198
0.001166480026
0.0007130212034
0.000404387305
0.0002063740685
8.912716294e-05
2.752956061e-05
2.755783498e-06
0.00300454587
0.02999289849
0.09613408014
0.218184331
0.415110943
0.7049110112
1.100542512
1.60459082
2.204742372
2.870216846
3.525117223
4.075877032
4.42967696
4.543211456
4.32878209
3.671624875
2.682093507
1.678931401
0.9781905564
0.7244799781
0.7686898801
0.8241211602
0.8389225917
0.7722929312
0.7624645487
0.6440546183
0.5084884366
0.4693688558
0.3560175095
0.328986788
0.3247644061
0.2195013819
0.214942708
0.1388459196
0.1282454626
0.1268001562
0.08066573502
0.07451886238
0.07333603869
0.07151900182
0.04792563266
0.04581720594
0.04602222989
0.04515433154
0.03526006186
0.03473943135
0.03460494441
0.03408608819
0.02858515254
0.02846418683
0.02838564945
0.02779115294
0.02146306552
0.02097751506
0.02074906174
0.0203939664
0.01484442135
0.01430478094
0.01401176182
0.01394264692
0.01064657627
0.01036417205
0.01016743838
0.01014953799
0.00821459967
0.008078514942
0.007938099573
0.007937594917
0.006639514606
0.006555851692
0.006421732813
0.006463188082
0.005625922647
0.00559030376
0.005458544031
0.005530057484
0.004984414642
0.004974894106
0.004823956385
0.004940208056
0.004657332142
0.00467732678
0.004493457281
0.00466577971
0.004633184352
0.004680064933
0.004418987821
0.004696323828
0.004700316305
0.005116697584
0.004858166976
0.005163748175
0.005204620003
0.005923748192
0.005768975021
0.005985055274
0.005995759991
0.006626498458
0.006555208552
0.006662553257
0.006556567108
0.006532665794
0.006462037872
0.006518829209
0.006363831623
0.00601614236
0.005823735672
0.006028760877
0.00618534205
0.007832390967
0.007581986193
0.008089339225
0.008933313428
0.01550751812
0.01562134157
0.01621225129
0.01742594509
0.02783134786
0.02874135757
0.02881637942
0.02907092267
0.03518519368
0.03617890871
0.03575747748
0.03466431852
0.0316058019
0.03169980656
0.03139158071
0.03021641836
0.0226117741
0.02213557287
0.02198843691
0.02136306452
0.01494465569
0.01419938157
0.01383038254
0.01407224755
0.01391282664
0.01384035559
0.01392722925
0.01449912246
0.01890216078
0.01911659973
0.01950990216
0.02462734328
0.02478334174
0.02759096136
0.02766444188
0.02781793602
0.02835752693
0.02912750625
0.02990142189
0.02995159126
0.02986141376
0.0300018483
0.03068433566
0.03654018571
0.04370939618
0.05198428611
0.05731472483
0.05597144805
0.04741197121
0.03570200364
0.02569181824
0.01840542741
0.01321204638
0.009478705708
0.006759965405
0.004733374291
0.003204787732
0.002078074613
0.001271962959
0.0007219796826
0.0003690233862
0.0001596847578
4.939017526e-05
4.944391549e-06
0.004799460003
0.04794629657
0.1540330048
0.351169879
0.6723962186
1.149210784
1.801687597
2.629121676
3.604939684
4.67482389
5.705897695
6.563569079
7.125635745
7.335874603
7.032546137
6.027865968
4.456141536
2.827356158
1.670402866
1.245053999
1.315012477
1.405528828
1.407596733
1.295401476
1.276831588
1.073678531
0.8524311487
0.7889063965
0.5986185659
0.5515016857
0.5449272658
0.3690399022
0.3611560122
0.234727288
0.2156464488
0.2134632585
0.1368075939
0.1258606104
0.123796776
0.1210858686
0.08142238801
0.0775807151
0.07804423034
0.07676889592
0.06004576577
0.05899570744
0.05876629265
0.05802514197
0.04868909597
0.04833934613
0.04812254133
0.04723616786
0.03652718549
0.03556881858
0.03510573158
0.0346028811
0.02528025058
0.02427837663
0.02373078604
0.02367968923
0.01816625891
0.01763221599
0.01726554628
0.01727734126
0.01403464991
0.01376003992
0.01349786877
0.01352687841
0.01135784357
0.01118165567
0.01094028042
0.01102812041
0.009630805088
0.009541501908
0.009315152316
0.009441463594
0.008532715014
0.008491218337
0.008247690536
0.008433118738
0.007958107386
0.007967092646
0.007691404286
0.007946959475
0.007887266303
0.007940608328
0.007580598528
0.00796665096
0.007993355888
0.008636243476
0.008293417029
0.008713483526
0.008805873916
0.009945840676
0.009739561654
0.01004579722
0.01009326032
0.0110836145
0.01098830412
0.01113962628
0.01099869415
0.01092716932
0.01080906639
0.01089898953
0.01067869008
0.01011108617
0.009776210637
0.01012854068
0.01042907159
0.01318632084
0.0127405453
0.01361501352
0.01508551013
0.02600889762
0.0261322924
0.0271865849
0.02934857187
0.04672020683
0.04814564173
0.0483558982
0.04893413872
0.05900409146
0.0605352954
0.05990059311
0.05817043325
0.05254634243
0.05252155258
0.05206529538
0.05018212244
0.03700476686
0.03600466193
0.03574731314
0.03485706893
0.02452972347
0.02319159877
0.02251825719
0.02310654838
0.02388514418
0.02379891766
0.02398163002
0.02514534522
0.03347209196
0.03383673913
0.03471304119
0.04417180502
0.04448889717
0.05026816393
0.05029693561
0.05089166459
0.05234375762
0.05384614286
0.05505255405
0.05488184844
0.05469270175
0.05354273293
0.05348275285
0.05838590055
0.06310465621
0.07120584355
0.0787976071
0.07999707506
0.07052527527
0.05434945984
0.03945534968
0.02825031799
0.02023728642
0.01451825312
0.01036356735
0.007262368302
0.004927910282
0.003200928564
0.001963392569
0.001116809726
0.0005723081849
0.0002482906857
7.693408406e-05
7.707174518e-06
0.006966260436
0.0696311598
0.2240210943
0.5123077005
0.98524147
1.690855429
2.655538092
3.866951481
5.270671083
6.775988537
8.178204109
9.324101978
10.09652602
10.43912545
10.10601595
8.802763881
6.6345027
4.30359298
2.606941009
1.977833055
2.086708269
2.225082963
2.199859475
2.019997444
1.987984245
1.664358514
1.326821895
1.231469813
0.9353243796
0.8609251463
0.8505374726
0.5776643922
0.565072829
0.3691820175
0.3378064385
0.3346820765
0.2160559621
0.1982320986
0.1949117228
0.1910804569
0.1290900274
0.1227287418
0.123592381
0.1218126287
0.09551641796
0.09366321931
0.0932979986
0.09228460116
0.07744606458
0.07671019154
0.07626166843
0.07500456194
0.05802780963
0.05633620317
0.05550718533
0.05483672084
0.04021313054
0.03852717521
0.03760256276
0.03759945922
0.02898339506
0.02807658725
0.02746076023
0.02752527908
0.02243270798
0.02194527429
0.02150440037
0.02158264602
0.01818503182
0.01786572541
0.01747163077
0.01762645399
0.01543549305
0.01525960992
0.01490347903
0.0151030837
0.01367495886
0.01357869888
0.01321495956
0.01348634479
0.01272192304
0.01270449099
0.0123183924
0.01267008909
0.01254538069
0.0125955583
0.0121299598
0.01263237104
0.01341343279
0.01359940199
0.01317996003
0.01371497742
0.01388240017
0.01553822532
0.01529630658
0.01568700574
0.01579154714
0.01720259867
0.01710184057
0.0172811702
0.0171068655
0.01692803164
0.01676063781
0.01687730536
0.01659204143
0.01575494243
0.01523121116
0.01578103559
0.01630917953
0.02068711963
0.01997634624
0.02135883447
0.02371879786
0.04068664366
0.04080563541
0.0425243079
0.04605935952
0.07316564715
0.07529003374
0.07570777885
0.07677767784
0.09219161533
0.09444300387
0.09350547699
0.09086048529
0.08103278498
0.08075126588
0.08008988985
0.07721681713
0.05576993315
0.05389410121
0.05347758612
0.05235182442
0.0372919825
0.03513593559
0.03402213746
0.03525617278
0.03880462655
0.03884302707
0.03920594935
0.04138111299
0.05658088747
0.05718958759
0.05894140512
0.07587344374
0.07649374886
0.08770226189
0.08766330348
0.08917940898
0.09230893622
0.0947692345
0.09607241227
0.09390263636
0.09327547642
0.08694011509
0.08168338673
0.07751427204
0.0719548588
0.07685100887
0.0894541904
0.09944400706
0.09416486452
0.07525867448
0.0553003943
0.03950596659
0.02809550324
0.02002438393
0.0142313103
0.009952129815
0.006746923158
0.004376912431
0.002683735642
0.001529800138
0.0007867540116
0.000342589221
0.0001064521202
1.067489211e-05
0.009268356458
0.09269320423
0.298435188
0.6834509436
1.316796215
2.262080963
3.545848767
5.129520539
6.912553377
8.756982567
10.38960222
11.68526116
12.59157344
13.07247061
12.8179431
11.40566268
8.838418784
5.929720134
3.740934604
2.937174788
3.114422886
3.31633685
3.241059173
2.963515882
2.91181887
2.427116819
1.941238929
1.807749891
1.374604484
1.266136366
1.249374445
0.8511969509
0.832315689
0.5465080557
0.4983705163
0.4940932164
0.3214927388
0.294413458
0.2894099646
0.2842925629
0.1932318412
0.1834526994
0.1848647915
0.1825214524
0.1435925718
0.1405890403
0.1400389096
0.1387199399
0.1163768962
0.1150191882
0.1142271391
0.1125183224
0.08707472171
0.08430102438
0.08295078331
0.08210301578
0.06049349694
0.05785199856
0.05641593511
0.05649401653
0.04379039334
0.04235935888
0.0414106277
0.04154786293
0.03397537713
0.03317472699
0.03249597093
0.0326402159
0.0276033169
0.0270724114
0.02648288882
0.02671878578
0.02346062785
0.02315091147
0.02263666286
0.02291806969
0.02078030881
0.02059415777
0.02009482556
0.02045346075
0.01926528563
0.01919319435
0.01869747071
0.01913541627
0.0188712256
0.01889562846
0.0183496045
0.01894061396
0.01904955171
0.02019557647
0.01974884315
0.0203530698
0.02061994658
0.02280298137
0.0225842675
0.02300388987
0.02318641631
0.02496573389
0.02491889969
0.02506090414
0.02486354248
0.02443285135
0.02424477492
0.02434606346
0.02402318974
0.02291103055
0.02216891094
0.02295565723
0.02384497018
0.03058086724
0.02955562814
0.03158771057
0.03514939337
0.06012707125
0.06023853451
0.06284103658
0.06826022167
0.1082108022
0.11126701
0.1119454907
0.1137034877
0.1357314945
0.1389224288
0.137525739
0.1336028291
0.1170671939
0.1163196327
0.1153559659
0.1111682035
0.07809562246
0.0748295141
0.07419970241
0.07302231172
0.05342587465
0.05028946495
0.04859146602
0.05095801214
0.06095282487
0.06145317533
0.06214471054
0.06599460665
0.09274248364
0.09372620508
0.09709176421
0.1260543608
0.1272145555
0.1468319126
0.1469452174
0.1497402899
0.1554969024
0.1588388755
0.1582310292
0.1482548318
0.1462239607
0.1271859772
0.1081057021
0.08473584077
0.06301167575
0.06415362007
0.08637064554
0.1136750625
0.1199472144
0.1005865187
0.0747622905
0.05298861584
0.03704106084
0.02590104189
0.01811306244
0.0125270387
0.008436802556
0.005460908782
0.003348351485
0.001911354382
0.0009857569239
0.0004306821793
0.000134197966
1.348255319e-05
0.0113107291
0.1131758462
0.3643898532
0.8343164398
1.606220462
2.752475574
4.288348374
6.132518833
8.125105116
10.08323013
11.69561673
12.9220595
13.81970848
14.362374
14.29429461
13.03320842
10.46908899
7.366046178
4.939272317
4.09649645
4.40045464
4.683105332
4.524070485
4.109538878
4.030440187
3.344915509
2.683253868
2.508670077
1.909085169
1.762005866
1.734640604
1.1846287
1.157855604
0.7641044126
0.6947346819
0.689054639
0.4523838737
0.4137186344
0.4066230164
0.4001891603
0.2741042266
0.2600733687
0.2621100035
0.2592249598
0.2047435514
0.200195288
0.1994057986
0.197777226
0.1657582589
0.1634438939
0.1622199103
0.1599669352
0.1238641413
0.1195829299
0.1175773091
0.1165401924
0.08642516213
0.08253513941
0.08048599231
0.08065525094
0.06294047127
0.06081094815
0.05947332828
0.05967678862
0.04898231014
0.04773953239
0.04678685714
0.04699139339
0.03990694475
0.03907642675
0.03827652901
0.03857970419
0.03397056271
0.03346120689
0.03279197659
0.03313078516
0.03007107549
0.02974192151
0.02913037744
0.02953541769
0.02774551483
0.02756971757
0.02701364741
0.02747430929
0.02693663348
0.02689051542
0.02635591384
0.02693339153
0.02710159054
0.02833552147
0.02798958122
0.02852608008
0.02890806346
0.03142629434
0.03136981268
0.03166401858
0.03193343735
0.03377485933
0.03391302887
0.03386058989
0.03365710999
0.0326743389
0.03255018934
0.03252987816
0.03224343634
0.03098840266
0.03004208242
0.03107830091
0.03253824041
0.04272066876
0.04140007371
0.04418548639
0.04929434541
0.08439379279
0.08454564608
0.08821336809
0.09606124663
0.1518799415
0.1561787606
0.1570801333
0.1596922839
0.1888647495
0.1932602954
0.191114466
0.1854666031
0.158648536
0.1571610451
0.1557242857
0.149914045
0.1017528195
0.096423243
0.09553894863
0.09478748063
0.07325198158
0.06922085523
0.0668294021
0.07106845459
0.09367438342
0.09525101033
0.09650977484
0.1030316439
0.1477589973
0.1492876879
0.1553554998
0.2009303445
0.2028890104
0.2336757551
0.2343049971
0.2385752664
0.2469513433
0.2486395109
0.2397738666
0.211561664
0.206398291
0.1680737321
0.1290361195
0.0841932948
0.04790614234
0.04550867744
0.07788518519
0.1286548846
0.1552240291
0.138349105
0.1040402154
0.07284919909
0.04964440641
0.03360887536
0.02276225699
0.01533748358
0.01013549682
0.006496413189
0.003969162295
0.002267230273
0.001172544042
0.0005139508867
0.0001605705329
1.615386282e-05
0.01263432378
0.1264708438
0.4069469893
0.9302424909
1.785431902
3.042984663
4.696612441
6.616983252
8.5927721
10.42059125
11.79766933
12.79739993
13.57567894
14.12888126
14.19986753
13.22835379
11.03982249
8.255184315
6.018538547
5.382141264
5.899116714
6.274297692
5.984041175
5.385555639
5.270617986
4.357028797
3.504312761
3.293309746
2.50468886
2.318734914
2.274383597
1.553947777
1.517982008
1.006813448
0.9131499291
0.9056957171
0.600548691
0.5487090264
0.5392647049
0.5316915655
0.3677074407
0.3490226664
0.3515363067
0.3482433164
0.2762820309
0.2698421861
0.2687600406
0.2668348979
0.2232039598
0.2195138579
0.2178775103
0.2149456712
0.1666315932
0.1604182485
0.1577376418
0.156458368
0.1170351555
0.11165463
0.1090109494
0.1092031744
0.08591068126
0.08291169135
0.08121967533
0.08141083586
0.06710464474
0.06527059384
0.06408018921
0.06427927566
0.05485570548
0.05362375681
0.0526723688
0.05296218293
0.04677134224
0.0459771713
0.04523048219
0.04552999652
0.04134533519
0.04079811654
0.04017877358
0.04050547696
0.03789439165
0.0375379222
0.03705910553
0.03738331724
0.03635074849
0.03615880489
0.03583203353
0.03617515573
0.03640181109
0.03734512271
0.03733776018
0.03753422773
0.03801359223
0.04032078745
0.04065665342
0.04054317251
0.04086364823
0.04206697784
0.0425800513
0.04208334323
0.04187433677
0.0399062823
0.03995523895
0.03968043295
0.03955533273
0.03859485452
0.03751710206
0.03879801845
0.04111399173
0.056246479
0.05478018588
0.05833332173
0.06532351888
0.1125016462
0.1128593132
0.1176365868
0.1283819386
0.2021238436
0.2081080367
0.2089630675
0.2124330734
0.2476225466
0.2535168388
0.2501240039
0.2422432539
0.2005217114
0.1979866268
0.195819557
0.1882567075
0.1230114933
0.1149127538
0.1137857756
0.1143979192
0.09797701822
0.09374701469
0.09067332004
0.09768816944
0.1414350266
0.1450210077
0.1471647261
0.1575468901
0.2258236474
0.2281585966
0.2378308857
0.301728845
0.3046600309
0.3432520359
0.3469269792
0.3496252865
0.3573712358
0.3496228123
0.3235585855
0.2700879448
0.2610519986
0.2055725825
0.154712851
0.09593894359
0.05209794524
0.04244316327
0.07635822965
0.1482407438
0.2041363509
0.1977442203
0.1530028883
0.1068564169
0.07147459951
0.04695192692
0.03066622536
0.01994571741
0.01279117867
0.008037443011
0.004855100997
0.0027596742
0.001425977956
0.0006257193163
0.000195786226
1.971580787e-05
0.01290401195
0.1291974874
0.4152403165
0.9466735094
1.808832455
3.061929243
4.678963438
6.500744648
8.298945859
9.885653294
10.99252136
11.76864789
12.40588575
12.89884122
13.00266623
12.27310704
10.60142688
8.481644944
6.851161661
6.688425202
7.500457456
7.957281006
7.476064422
6.649180102
6.49187961
5.348470433
4.306946469
4.07405682
3.08872905
2.869886475
2.800478493
1.90960157
1.864015223
1.241678991
1.124295189
1.114462084
0.7467042758
0.681890819
0.6701886971
0.6618798689
0.4631112915
0.4403825347
0.4428016394
0.4393391394
0.3502415759
0.3417928059
0.340379327
0.3381527367
0.2820959424
0.2766256151
0.2748098189
0.2709845622
0.2105141374
0.202123055
0.1989790007
0.1973083503
0.1491395687
0.1421996963
0.1392092025
0.1392084082
0.1105254816
0.1065489115
0.1047107493
0.1046806545
0.08670048307
0.08414350302
0.08288792907
0.08290857161
0.07114977352
0.06942712675
0.06851333383
0.06859618672
0.06075079303
0.05958152461
0.05895450722
0.05900582273
0.05356523838
0.05271288432
0.05230411112
0.05231265174
0.04864550031
0.0480109688
0.04784798538
0.04776670795
0.04592057558
0.04548557351
0.04564258943
0.04542945256
0.04567284887
0.04568729562
0.04627573424
0.04580142684
0.04627947087
0.04745559535
0.0483592245
0.04756216829
0.04779527291
0.0473985853
0.04832195022
0.04725902405
0.04698211161
0.04376488425
0.04393635525
0.04346303886
0.0436172135
0.0438539647
0.04270063237
0.04430516973
0.04774074913
0.06944375732
0.06811945098
0.07234427538
0.08142125906
0.1417370472
0.1426572597
0.1483109563
0.1621285327
0.2534926398
0.261759855
0.261916041
0.2659114048
0.3033416735
0.3110178667
0.3056327246
0.2949876899
0.2334349335
0.2295031113
0.2263756169
0.2174223676
0.1383673018
0.1271845301
0.1259528888
0.1294223326
0.1308687711
0.1281818333
0.1247151317
0.1353059839
0.207677642
0.2143018363
0.2175539857
0.2323235389
0.3233439137
0.3267407532
0.3399087566
0.4126711286
0.4160736553
0.4504283524
0.4593654589
0.4536446017
0.4498148988
0.4295301196
0.3823358617
0.3104918835
0.2997169876
0.2395301587
0.1938126175
0.13490096
0.09120204298
0.0711415317
0.09317602572
0.170970717
0.2580807524
0.2775721208
0.228317891
0.1629896791
0.1092671461
0.07107432691
0.04555926717
0.02894412565
0.01812593677
0.01116885958
0.006653601726
0.003750086616
0.001929395468
0.000845196977
0.0002643681946
2.6624577e-05
0.01212708876
0.1214279882
0.389751772
0.8859689859
1.685152237
2.835453971
4.301884264
5.930404908
7.518433246
8.915048957
9.860718394
10.49586223
11.01269664
11.39235868
11.42892212
10.83762434
9.652164805
8.28154711
7.452725692
7.903543486
9.026877675
9.506813975
8.778740452
7.697222498
7.496220748
6.151289779
4.944006057
4.7040958
3.544784653
3.306481196
3.206189229
2.176915944
2.123024391
1.418287636
1.283411624
1.270475693
0.8596266738
0.7850863426
0.7717608468
0.7631538083
0.5409793391
0.516321982
0.5175934645
0.5141821831
0.41190263
0.4018377664
0.4000977638
0.3975015296
0.3306155304
0.3232433173
0.3217679373
0.3167597963
0.2468803451
0.2365056049
0.2334280239
0.2310730987
0.1767007987
0.1684457984
0.1656213386
0.165050153
0.132273663
0.1273805611
0.1258067396
0.1252113314
0.1042754465
0.1009813996
0.09998270153
0.09954765076
0.08594697597
0.08372738461
0.08316733595
0.08274953563
0.07347471217
0.07189156675
0.07166760095
0.07118937835
0.06452821535
0.0633229966
0.06339162394
0.06279762913
0.05792813999
0.0569532021
0.05730489782
0.05658409376
0.05359042233
0.05285631699
0.0536039089
0.05266487244
0.0516621682
0.0512442045
0.05232665508
0.05118319171
0.05143631656
0.05062190324
0.05178227647
0.05050086033
0.05039073542
0.04784793239
0.04865586354
0.04750435292
0.04702619
0.04293749936
0.04279720449
0.04264062553
0.04309554633
0.0456886959
0.04436787906
0.04655713894
0.05115243691
0.08014928382
0.07926636659
0.08397907173
0.09499540563
0.1672213669
0.1692147819
0.1751376715
0.1915657545
0.2961737904
0.3073302476
0.3057509814
0.3094376728
0.342310237
0.3518904885
0.3436858533
0.3298248876
0.2464919004
0.2404826018
0.2368338138
0.2279702359
0.1488805687
0.1356260569
0.1346447179
0.142646234
0.1770559499
0.1785836869
0.1756353611
0.1894719798
0.2891875418
0.2991501093
0.3032736917
0.3209004585
0.419231224
0.423957949
0.4365728515
0.5017147499
0.5041594873
0.5192013593
0.5294773733