/*--------------------------------*- C++ -*----------------------------------*\
| =========                 |                                                 |
| \\      /  F ield         | OpenFOAM: The Open Source CFD Toolbox           |
|  \\    /   O peration     | Version:  2206                                  |
|   \\  /    A nd           | Website:  www.openfoam.com                      |
|    \\/     M anipulation  |                                                 |
\*---------------------------------------------------------------------------*/
FoamFile
{
    version     2.0;
    format      ascii;
    arch        "LSB;label=32;scalar=64";
    class       volVectorField;
    location    "0";
    object      U;
}
// * * * * * * * * * * * * * * * * * * * * * * * * * * * * * * * * * * * * * //

dimensions      [0 1 -1 0 0 0 0];

internalField   nonuniform List<vector> 
31329
(
(0.0006728112287 0 0.0006866646037)
(0.0008184310964 0 0.0005142911478)
(9.279183026e-05 0 0.0001450922903)
(-0.0003369768907 0 5.394594941e-05)
(-0.000529256034 0 2.869638238e-05)
(-0.0006693863505 0 1.334717163e-05)
(-0.0007729468126 0 5.749961507e-06)
(-0.00083275129 0 1.21649136e-06)
(-0.0008558642464 0 -8.991087026e-07)
(-0.000867825875 0 -4.628676559e-07)
(-0.0009025430724 0 1.014170034e-06)
(-0.0009674651686 0 1.03651225e-06)
(-0.001021253954 0 -1.314871927e-06)
(-0.001003765054 0 -4.175829911e-06)
(-0.0009701719151 0 -6.487106883e-06)
(-0.000832699025 0 -5.707369942e-06)
(-0.0007287165888 0 -2.837043615e-06)
(-0.0007191856248 0 6.952079275e-07)
(-0.0008411615298 0 3.785825299e-06)
(-0.001106138933 0 5.927370852e-06)
(-0.001470990482 0 6.474931092e-06)
(-0.001861723504 0 6.133692277e-06)
(-0.003618427188 0 1.458817209e-05)
(-0.00366408099 0 8.12239403e-06)
(-0.003823624212 0 8.396368767e-06)
(-0.004351583597 0 3.243163219e-06)
(-0.003610266958 0 -6.349272733e-07)
(-0.003601896244 0 -8.410583e-07)
(-0.003473146052 0 -2.235734536e-06)
(-0.004033061251 0 -3.25245796e-06)
(-0.003642027262 0 -2.672990795e-06)
(-0.003659454229 0 -3.883450314e-06)
(-0.003686198812 0 -3.973440304e-06)
(-0.002951486766 0 -3.373208785e-06)
(-0.003400176435 0 -4.593143838e-06)
(-0.003236626684 0 -4.214671962e-06)
(-0.002563100834 0 -3.125060281e-06)
(-0.002893470382 0 -4.088856359e-06)
(-0.002915631733 0 -4.168455962e-06)
(-0.002569815802 0 -3.304578469e-06)
(-0.002317729928 0 -2.466534493e-06)
(-0.002549035831 0 -2.999812496e-06)
(-0.002427664392 0 -2.732208621e-06)
(-0.002181115264 0 -2.202662817e-06)
(-0.002061256327 0 -7.990402641e-07)
(-0.00225825314 0 -9.392593484e-07)
(-0.002252737377 0 -9.288233764e-07)
(-0.002045347967 0 -7.383772919e-07)
(-0.001977189385 0 6.66701549e-07)
(-0.002183684562 0 8.409398041e-07)
(-0.002289968158 0 9.265971214e-07)
(-0.002089639697 0 7.943778049e-07)
(-0.002088040585 0 1.718788109e-06)
(-0.002339097909 0 2.146196662e-06)
(-0.002470679752 0 2.376214799e-06)
(-0.002261073034 0 1.997554414e-06)
(-0.002349917091 0 2.077823127e-06)
(-0.00264858578 0 2.588304162e-06)
(-0.002811113551 0 2.885352658e-06)
(-0.002569057352 0 2.389757266e-06)
(-0.002579812462 0 7.032205521e-07)
(-0.002909556663 0 8.207473451e-07)
(-0.00309707437 0 9.027366838e-07)
(-0.002817092056 0 7.271105943e-07)
(-0.002540668909 0 -1.316976462e-06)
(-0.002835017879 0 -1.714672514e-06)
(-0.002999782368 0 -1.930274767e-06)
(-0.002743881111 0 -1.6498459e-06)
(-0.002286984684 0 -2.000019961e-06)
(-0.002528625213 0 -2.49864522e-06)
(-0.002643860042 0 -2.736126361e-06)
(-0.002455101182 0 -2.39331673e-06)
(-0.002012284914 0 -1.654930558e-06)
(-0.002222309607 0 -2.043837009e-06)
(-0.002281855075 0 -2.163985642e-06)
(-0.002170415284 0 -1.965920022e-06)
(-0.001813078226 0 -1.039645676e-06)
(-0.002009444638 0 -1.268584466e-06)
(-0.001990247626 0 -1.242792444e-06)
(-0.001975888588 0 -1.229933471e-06)
(-0.001686019561 0 -7.11472302e-07)
(-0.001876325569 0 -8.792005094e-07)
(-0.001705915322 0 -7.269042002e-07)
(-0.001856020955 0 -8.634759049e-07)
(-0.001585267166 0 -6.071639076e-07)
(-0.001765808283 0 -7.59517575e-07)
(-0.001268771243 0 -3.556902891e-07)
(-0.001755804386 0 -7.53760161e-07)
(-0.001496133911 0 -4.948956034e-07)
(-0.001667274846 0 -6.187798126e-07)
(-0.001200975527 0 -2.868517732e-07)
(-0.001666696517 0 -6.193390062e-07)
(-0.001482748826 0 -4.890066814e-07)
(-0.001589831046 0 -4.92810992e-07)
(-0.001457456005 0 -4.073993754e-07)
(-0.001597789946 0 -5.02105451e-07)
(-0.001422421052 0 -4.14014904e-07)
(-0.0015192349 0 -7.804638775e-07)
(-0.001530627019 0 -7.941196566e-07)
(-0.001532885956 0 -8.068549553e-07)
(-0.001357958582 0 -6.639492774e-07)
(-0.001389581726 0 -1.202182282e-06)
(-0.001455939902 0 -1.32366888e-06)
(-0.001405482039 0 -1.247142209e-06)
(-0.001242252572 0 -1.007545678e-06)
(-0.001228069781 0 -1.275699175e-06)
(-0.001311751022 0 -1.442407881e-06)
(-0.001246363178 0 -1.330889127e-06)
(-0.001101241811 0 -1.087968155e-06)
(-0.001072852995 0 -1.427984264e-06)
(-0.001162344736 0 -1.653740057e-06)
(-0.001093177996 0 -1.504840783e-06)
(-0.0009598022451 0 -1.231107248e-06)
(-0.0008915183184 0 -1.526008422e-06)
(-0.0009703471189 0 -1.796184401e-06)
(-0.0009104471706 0 -1.616175835e-06)
(-0.0007972838676 0 -1.299059995e-06)
(-0.0007294411678 0 -8.895070388e-07)
(-0.0007942845404 0 -1.047021718e-06)
(-0.0007497715691 0 -9.322215899e-07)
(-0.0006648077354 0 -7.195878321e-07)
(-0.0006999638919 0 7.49097573e-07)
(-0.0007667192147 0 9.088043219e-07)
(-0.0007329057726 0 8.497269622e-07)
(-0.0006710231555 0 7.612942742e-07)
(-0.0009408043932 0 3.823583503e-06)
(-0.001037165569 0 4.59845581e-06)
(-0.001008321276 0 4.24954272e-06)
(-0.0009632033358 0 3.616417757e-06)
(-0.001682820057 0 8.681701981e-06)
(-0.001886992536 0 1.052121447e-05)
(-0.00190713801 0 1.058614904e-05)
(-0.001822899052 0 8.928175393e-06)
(-0.003123991967 0 1.443764958e-05)
(-0.003570908529 0 1.77462373e-05)
(-0.003768925242 0 1.944332334e-05)
(-0.003518797461 0 1.603568698e-05)
(-0.005273209624 0 1.828882592e-05)
(-0.006113458748 0 2.296690215e-05)
(-0.006098665006 0 2.255491975e-05)
(-0.005480900214 0 1.717961602e-05)
(-0.007901228977 0 1.751139119e-05)
(-0.008356306518 0 1.902641184e-05)
(-0.007239301571 0 1.413980344e-05)
(-0.009298974918 0 1.330507168e-05)
(-0.009254433823 0 1.309484638e-05)
(-0.00925031443 0 1.161301086e-05)
(-0.01018151029 0 1.363932222e-05)
(-0.008900800805 0 1.065370251e-05)
(-0.009913312812 0 1.641463066e-05)
(-0.009738209103 0 1.588043118e-05)
(-0.01274135572 0 3.430617949e-05)
(-0.01356690132 0 4.687370691e-05)
(-0.0134459868 0 4.542256431e-05)
(-0.01700155991 0 7.579993289e-05)
(-0.01405650608 0 4.72311685e-05)
(-0.015786019 0 4.648693634e-05)
(-0.01680833258 0 3.274313364e-05)
(-0.01696423629 0 7.625877415e-09)
(-0.01561069349 0 -4.653016291e-05)
(-0.01301803548 0 -9.271619344e-05)
(-0.009763903454 0 -0.000119164085)
(-0.006639249116 0 -0.0001169567882)
(-0.004177323577 0 -9.467740627e-05)
(-0.002494175071 0 -6.719517747e-05)
(-0.001443501644 0 -4.38828266e-05)
(-0.0008240048793 0 -2.686296906e-05)
(-0.0004728096716 0 -1.557170872e-05)
(-0.0002594288743 0 -5.854771118e-06)
(-0.0001601895834 0 -3.059141683e-06)
(-0.0001043486411 0 -1.408483804e-06)
(-7.227876933e-05 0 -4.799806784e-07)
(-5.283112676e-05 0 -4.954708278e-08)
(-3.852752103e-05 0 -6.045426535e-07)
(-2.496851763e-05 0 -1.792115108e-06)
(-1.230516875e-05 0 -2.671160681e-06)
(-2.502994488e-06 0 -2.474839659e-06)
(0.0004791004288 0 0.0009594013627)
(0.000664664045 0 0.001001399785)
(8.799932479e-05 0 0.0006327968616)
(-0.0006087759478 0 0.0003862504398)
(-0.001163992666 0 0.0002462988434)
(-0.001650124387 0 0.000156229175)
(-0.002032150612 0 9.096874318e-05)
(-0.002287954202 0 4.245121151e-05)
(-0.002435205212 0 1.682957105e-05)
(-0.002542830159 0 1.680958428e-05)
(-0.002703401784 0 2.930614176e-05)
(-0.002944281216 0 3.077255356e-05)
(-0.003164103527 0 9.446869609e-06)
(-0.003197975813 0 -2.095778296e-05)
(-0.003005372547 0 -3.917158561e-05)
(-0.002692911606 0 -3.596943651e-05)
(-0.00245416096 0 -1.655485172e-05)
(-0.002439768485 0 8.144134089e-06)
(-0.002747021214 0 3.014879361e-05)
(-0.003399852453 0 4.369746435e-05)
(-0.00427169888 0 4.498862147e-05)
(-0.005162093241 0 3.985311715e-05)
(-0.006203534207 0 3.987516878e-05)
(-0.006817755689 0 2.505677988e-05)
(-0.006908421723 0 2.364975096e-05)
(-0.007216484325 0 7.296430799e-06)
(-0.007108728871 0 -2.886263731e-06)
(-0.006979241102 0 -4.693121864e-06)
(-0.006766949622 0 -9.136607884e-06)
(-0.006668793858 0 -1.05333427e-05)
(-0.006673384703 0 -1.024094888e-05)
(-0.006212244496 0 -1.25240511e-05)
(-0.00618758498 0 -1.264046336e-05)
(-0.005601172342 0 -1.251206762e-05)
(-0.005536724442 0 -1.354317291e-05)
(-0.005509670209 0 -1.325282148e-05)
(-0.004878520823 0 -1.156131782e-05)
(-0.004803633513 0 -1.224099866e-05)
(-0.004784470541 0 -1.225975297e-05)
(-0.004714609583 0 -1.135208406e-05)
(-0.00413212438 0 -8.247910721e-06)
(-0.004073257821 0 -8.448611116e-06)
(-0.00407758601 0 -8.198492523e-06)
(-0.004042807627 0 -7.469691951e-06)
(-0.003714944724 0 -2.964826032e-06)
(-0.003684697252 0 -2.799961732e-06)
(-0.003681609784 0 -2.73113771e-06)
(-0.003684684147 0 -2.385263523e-06)
(-0.003662812055 0 1.836442764e-06)
(-0.003663539968 0 2.260575464e-06)
(-0.00365097239 0 2.395766522e-06)
(-0.003678787174 0 2.443245225e-06)
(-0.003904929119 0 5.610216641e-06)
(-0.003937258183 0 6.232697013e-06)
(-0.003930454309 0 6.473753143e-06)
(-0.003972232131 0 6.222075291e-06)
(-0.004391805198 0 6.975036281e-06)
(-0.004460230374 0 7.56629343e-06)
(-0.004466792643 0 7.890649553e-06)
(-0.004492803183 0 7.210898885e-06)
(-0.004830397948 0 2.830728997e-06)
(-0.004906511783 0 2.613503093e-06)
(-0.004924339872 0 2.612631762e-06)
(-0.004902583717 0 2.171421497e-06)
(-0.004799422008 0 -3.813893094e-06)
(-0.004811260226 0 -4.706254281e-06)
(-0.004799199321 0 -5.070973256e-06)
(-0.004775969838 0 -4.864732691e-06)
(-0.004363156511 0 -6.802760714e-06)
(-0.004323375453 0 -7.403358209e-06)
(-0.00427545062 0 -7.599081687e-06)
(-0.004282021155 0 -7.321361866e-06)
(-0.003862966135 0 -6.07566439e-06)
(-0.00381909347 0 -6.281285517e-06)
(-0.003754119846 0 -6.22322808e-06)
(-0.003787010789 0 -6.124330818e-06)
(-0.003490699227 0 -4.083667838e-06)
(-0.003463368035 0 -4.069868245e-06)
(-0.003390319911 0 -3.840483183e-06)
(-0.0034424123 0 -3.95893243e-06)
(-0.003250426242 0 -2.818401284e-06)
(-0.003238779828 0 -2.848839853e-06)
(-0.00316006791 0 -2.571644944e-06)
(-0.00322365841 0 -2.801246693e-06)
(-0.003063034268 0 -2.344721076e-06)
(-0.003054041953 0 -2.440086028e-06)
(-0.002974516197 0 -2.007503313e-06)
(-0.003041135399 0 -2.416173678e-06)
(-0.003011105956 0 -2.255191816e-06)
(-0.002889148644 0 -2.023963354e-06)
(-0.002813444126 0 -1.65479423e-06)
(-0.002878661352 0 -2.003209891e-06)
(-0.002854483319 0 -1.865868745e-06)
(-0.002758937193 0 -1.648180529e-06)
(-0.002694667341 0 -1.466433295e-06)
(-0.00275086094 0 -1.661838833e-06)
(-0.00272921894 0 -1.675878614e-06)
(-0.002642836911 0 -2.393749989e-06)
(-0.002603009054 0 -2.339765487e-06)
(-0.002632640911 0 -2.464328987e-06)
(-0.002596537595 0 -2.469592665e-06)
(-0.002433184403 0 -3.597335326e-06)
(-0.002401434973 0 -3.672018312e-06)
(-0.002416879951 0 -3.6748893e-06)
(-0.002376866289 0 -3.507858586e-06)
(-0.002169755961 0 -3.871688948e-06)
(-0.00214308256 0 -3.910945579e-06)
(-0.002151658455 0 -3.920796419e-06)
(-0.002116162419 0 -3.792580259e-06)
(-0.00191856414 0 -4.213465683e-06)
(-0.001903913406 0 -4.310871159e-06)
(-0.001901045733 0 -4.279408376e-06)
(-0.001858291632 0 -4.128290366e-06)
(-0.001631862777 0 -4.366263624e-06)
(-0.00161621609 0 -4.561919735e-06)
(-0.00161255965 0 -4.406538013e-06)
(-0.001574245939 0 -4.037424407e-06)
(-0.001381113127 0 -2.398599814e-06)
(-0.001361437962 0 -2.489542991e-06)
(-0.00136763655 0 -2.279086209e-06)
(-0.001356630149 0 -1.753067452e-06)
(-0.001357442211 0 2.760862105e-06)
(-0.001342203709 0 2.924226789e-06)
(-0.001364906175 0 3.158348754e-06)
(-0.001403261325 0 3.799149116e-06)
(-0.001805082505 0 1.258744847e-05)
(-0.001797531529 0 1.32649627e-05)
(-0.001850511154 0 1.345272007e-05)
(-0.001975081129 0 1.40486221e-05)
(-0.003198227457 0 2.88825767e-05)
(-0.003257974527 0 3.084622885e-05)
(-0.00329302989 0 3.111886833e-05)
(-0.003514162579 0 3.108828609e-05)
(-0.005960026922 0 4.923242737e-05)
(-0.00619975343 0 5.321729824e-05)
(-0.006226091668 0 5.466708249e-05)
(-0.006527597814 0 5.275909649e-05)
(-0.009839117903 0 6.16878373e-05)
(-0.01023765039 0 6.64289052e-05)
(-0.01033274644 0 6.605595014e-05)
(-0.01068486643 0 6.051704323e-05)
(-0.01363505559 0 5.419017101e-05)
(-0.01378711396 0 5.489929601e-05)
(-0.01391810165 0 5.000959007e-05)
(-0.01577680679 0 4.0259068e-05)
(-0.01584623224 0 3.996095434e-05)
(-0.01706775704 0 3.992271244e-05)
(-0.01700994952 0 3.972304855e-05)
(-0.01740415857 0 4.137479508e-05)
(-0.01840680647 0 5.532948375e-05)
(-0.0191563333 0 6.209134525e-05)
(-0.02095630269 0 9.640454565e-05)
(-0.02396539357 0 0.00014373478)
(-0.02445401317 0 0.0001484644895)
(-0.0279236958 0 0.0002075697135)
(-0.03190010266 0 0.0002187702895)
(-0.03615704203 0 0.0002095481212)
(-0.03874688166 0 0.0001314730211)
(-0.03939331779 0 -4.521956402e-05)
(-0.03651977073 0 -0.0003197995528)
(-0.03079027475 0 -0.0005948720988)
(-0.02348143604 0 -0.0007699918158)
(-0.01634960848 0 -0.0007844693073)
(-0.01060607073 0 -0.0006723711301)
(-0.006566168746 0 -0.0005123024809)
(-0.003958673615 0 -0.0003626038888)
(-0.002362614515 0 -0.0002442761588)
(-0.001417825946 0 -0.0001595247368)
(-0.0008645748707 0 -9.968475744e-05)
(-0.0005419054086 0 -6.474843282e-05)
(-0.0003493135418 0 -4.28096511e-05)
(-0.0002301988508 0 -2.950919879e-05)
(-0.0001518411971 0 -2.245006857e-05)
(-9.542813201e-05 0 -2.111621643e-05)
(-5.214086136e-05 0 -2.221251553e-05)
(-2.09100067e-05 0 -2.082475202e-05)
(-2.612223296e-06 0 -1.217888874e-05)
(9.569449697e-05 0 0.0004719843309)
(0.0001667031753 0 0.001004718935)
(-0.0002225084834 0 0.001058421225)
(-0.0009067112708 0 0.0009266596798)
(-0.001706590677 0 0.000726534451)
(-0.002499103974 0 0.0005225298068)
(-0.003178065541 0 0.0003350963186)
(-0.003683597619 0 0.0001848364962)
(-0.004028105719 0 9.97076928e-05)
(-0.004310082999 0 8.896539976e-05)
(-0.004667513272 0 0.0001170808776)
(-0.005146059487 0 0.0001182441314)
(-0.005601462452 0 5.589636167e-05)
(-0.005774167577 0 -3.436656997e-05)
(-0.005594494494 0 -9.124139012e-05)
(-0.005217614686 0 -8.736273047e-05)
(-0.004936509396 0 -3.690657834e-05)
(-0.004987749936 0 3.115576644e-05)
(-0.005542128789 0 9.387904658e-05)
(-0.00665105335 0 0.0001321482981)
(-0.008108165318 0 0.0001343895214)
(-0.009584060769 0 0.0001173233439)
(-0.01115859469 0 0.0001021922753)
(-0.01211848915 0 6.361873289e-05)
(-0.01225038218 0 5.86200615e-05)
(-0.0126782313 0 1.541086432e-05)
(-0.01244937786 0 -1.078846054e-05)
(-0.01228610135 0 -1.635177746e-05)
(-0.01179189486 0 -2.776020269e-05)
(-0.01161529309 0 -3.080986609e-05)
(-0.01160293875 0 -3.055426117e-05)
(-0.01075705613 0 -3.559848228e-05)
(-0.01071062032 0 -3.583043071e-05)
(-0.009695891189 0 -3.57389623e-05)
(-0.009561800947 0 -3.734491891e-05)
(-0.009518589725 0 -3.686278259e-05)
(-0.008437207294 0 -3.270825155e-05)
(-0.008291538496 0 -3.355095279e-05)
(-0.008257059388 0 -3.350096519e-05)
(-0.008147616354 0 -3.165056503e-05)
(-0.007142352303 0 -2.287663471e-05)
(-0.007033495473 0 -2.28293681e-05)
(-0.007042733932 0 -2.232489331e-05)
(-0.006992113697 0 -2.064098609e-05)
(-0.006430646188 0 -8.414342409e-06)
(-0.006372170425 0 -7.669754768e-06)
(-0.006366860228 0 -7.454551449e-06)
(-0.006378137958 0 -6.575085666e-06)
(-0.006336794194 0 4.66436611e-06)
(-0.006329970172 0 5.817030493e-06)
(-0.006307385249 0 6.156013573e-06)
(-0.006358715113 0 6.496447913e-06)
(-0.006742389997 0 1.521795049e-05)
(-0.006788240506 0 1.670301578e-05)
(-0.006775570498 0 1.723784962e-05)
(-0.006851472125 0 1.687919431e-05)
(-0.007574086794 0 1.91485113e-05)
(-0.007682595747 0 2.039230393e-05)
(-0.007694841746 0 2.11162278e-05)
(-0.007741983768 0 1.950010463e-05)
(-0.008327796018 0 8.271804086e-06)
(-0.008447753713 0 7.388554997e-06)
(-0.008480636447 0 7.289509399e-06)
(-0.008445975758 0 6.065093222e-06)
(-0.008297256358 0 -9.694493308e-06)
(-0.008309698353 0 -1.209308116e-05)
(-0.00829613333 0 -1.306316235e-05)
(-0.008253654059 0 -1.271956403e-05)
(-0.00757398824 0 -1.848163873e-05)
(-0.00749788219 0 -1.982069754e-05)
(-0.007427266644 0 -2.02777597e-05)
(-0.007429513408 0 -1.970863616e-05)
(-0.006725717222 0 -1.695917761e-05)
(-0.006641044383 0 -1.711315262e-05)
(-0.006546495314 0 -1.688246333e-05)
(-0.006587079685 0 -1.670791117e-05)
(-0.006085520961 0 -1.166667144e-05)
(-0.006029113141 0 -1.130336421e-05)
(-0.005930599009 0 -1.068392483e-05)
(-0.005993348695 0 -1.0989742e-05)
(-0.005666335284 0 -8.115905532e-06)
(-0.005636877635 0 -7.968928468e-06)
(-0.005541640482 0 -7.356144667e-06)
(-0.005610694667 0 -7.831021111e-06)
(-0.005337976964 0 -6.72942175e-06)
(-0.005313886728 0 -6.819126185e-06)
(-0.005223200604 0 -6.109300765e-06)
(-0.005291192042 0 -6.747545527e-06)
(-0.005047167832 0 -5.65863585e-06)
(-0.005024446904 0 -5.700689208e-06)
(-0.00493723467 0 -5.084409753e-06)
(-0.005005547883 0 -5.628750566e-06)
(-0.004969998108 0 -5.356665033e-06)
(-0.004794303654 0 -4.636542748e-06)
(-0.004716826343 0 -4.211907246e-06)
(-0.004779592535 0 -4.659346538e-06)
(-0.004749292337 0 -4.808036092e-06)
(-0.004596244764 0 -6.428357195e-06)
(-0.004547182008 0 -6.284845987e-06)
(-0.004578420994 0 -6.614992434e-06)
(-0.004524407295 0 -6.817835515e-06)
(-0.004248801399 0 -9.52093982e-06)
(-0.0042037757 0 -9.678244398e-06)
(-0.004220897739 0 -9.711470903e-06)
(-0.004160214834 0 -9.477628211e-06)
(-0.003815255113 0 -1.020050361e-05)
(-0.003772353499 0 -1.018261861e-05)
(-0.003784567294 0 -1.028064914e-05)
(-0.003732803321 0 -1.014911906e-05)
(-0.003413695971 0 -1.083307233e-05)
(-0.003387935136 0 -1.091130379e-05)
(-0.003384851863 0 -1.093370823e-05)
(-0.003322841631 0 -1.077062315e-05)
(-0.002969359252 0 -1.09626971e-05)
(-0.002941145724 0 -1.130517287e-05)
(-0.002938483688 0 -1.097021529e-05)
(-0.002884466264 0 -1.016148665e-05)
(-0.002594318641 0 -5.567899448e-06)
(-0.002558480066 0 -5.713287396e-06)
(-0.002573566333 0 -5.120830282e-06)
(-0.002566134879 0 -3.635299425e-06)
(-0.002607933686 0 8.560739079e-06)
(-0.002578288608 0 8.85948553e-06)
(-0.002622752691 0 9.744810935e-06)
(-0.002701495805 0 1.206965538e-05)
(-0.003435064792 0 3.568565681e-05)
(-0.003416976712 0 3.692483707e-05)
(-0.003514864388 0 3.800631916e-05)
(-0.003745406382 0 4.09637801e-05)
(-0.005909638635 0 8.092474093e-05)
(-0.006007551598 0 8.499598229e-05)
(-0.006069731175 0 8.583152278e-05)
(-0.006470219316 0 8.800174245e-05)
(-0.01075070736 0 0.0001372819388)
(-0.011157828 0 0.0001458874598)
(-0.01120081271 0 0.0001486460951)
(-0.01174050021 0 0.0001467176744)
(-0.0174739023 0 0.0001710998699)
(-0.01813941846 0 0.0001803418773)
(-0.01830751871 0 0.0001796305644)
(-0.01895484278 0 0.0001688808583)
(-0.02398959425 0 0.0001486736857)
(-0.02424064852 0 0.0001490739628)
(-0.02451749498 0 0.0001395138696)
(-0.02764351843 0 0.0001096378552)
(-0.02776636978 0 0.0001088968673)
(-0.02987059235 0 0.0001105870906)
(-0.02981751522 0 0.0001078207832)
(-0.03047376929 0 0.000116796146)
(-0.03235595522 0 0.0001536470365)
(-0.03345386442 0 0.0001741716184)
(-0.03643877129 0 0.0002555407949)
(-0.04138795879 0 0.0003792977885)
(-0.04219925094 0 0.0003952777299)
(-0.04778675747 0 0.0005312052774)
(-0.054367612 0 0.0005899639736)
(-0.06062385052 0 0.0005298480882)
(-0.06384533709 0 0.0002846995353)
(-0.06389083388 0 -0.0002196051747)
(-0.05838061878 0 -0.0009920625774)
(-0.04878648287 0 -0.001729176915)
(-0.03714884445 0 -0.002186044828)
(-0.02603313856 0 -0.002214883809)
(-0.01711548257 0 -0.001910657967)
(-0.01079396614 0 -0.001477451109)
(-0.006652306077 0 -0.001067081637)
(-0.004066298507 0 -0.0007376564028)
(-0.002496867819 0 -0.0004975448435)
(-0.001551958354 0 -0.0003297880065)
(-0.000980617412 0 -0.0002236855196)
(-0.0006270905091 0 -0.0001557072786)
(-0.0004005347018 0 -0.0001134226864)
(-0.0002486090014 0 -8.878874148e-05)
(-0.0001428177925 0 -7.605845378e-05)
(-6.964192485e-05 0 -6.697265434e-05)
(-2.407931736e-05 0 -5.262799427e-05)
(-2.075188481e-06 0 -2.53167459e-05)
(4.717916294e-06 0 0.0003664502566)
(-0.0001298486899 0 0.001147901209)
(-0.0005418616936 0 0.00160126013)
(-0.001288667069 0 0.00165755298)
(-0.00226010839 0 0.00146779415)
(-0.003302843408 0 0.001150004826)
(-0.004269147283 0 0.0007946699454)
(-0.005058863611 0 0.0004864282387)
(-0.005668746721 0 0.0003009988343)
(-0.006210286967 0 0.0002641292786)
(-0.006847849497 0 0.0003080315121)
(-0.007635067023 0 0.0003024099561)
(-0.008397052192 0 0.0001696898528)
(-0.00879817994 0 -2.227762157e-05)
(-0.008744978273 0 -0.0001460664903)
(-0.00843332876 0 -0.0001478317053)
(-0.008221610375 0 -5.305716664e-05)
(-0.008422477131 0 8.252433456e-05)
(-0.009273565556 0 0.0002110724389)
(-0.01085484885 0 0.0002888854257)
(-0.01288338666 0 0.0002906052766)
(-0.01491407384 0 0.0002507311349)
(-0.01694289798 0 0.0002033918938)
(-0.01816503998 0 0.0001232947485)
(-0.01832368318 0 0.0001117934117)
(-0.01878143086 0 2.370004103e-05)
(-0.01836701668 0 -2.938771585e-05)
(-0.01815856094 0 -4.141257858e-05)
(-0.01731370691 0 -6.403311562e-05)
(-0.01704263189 0 -6.955405796e-05)
(-0.01700932468 0 -6.947492936e-05)
(-0.0157151 0 -7.834208007e-05)
(-0.01564339973 0 -7.871454209e-05)
(-0.01415253395 0 -7.815146582e-05)
(-0.01393809543 0 -8.033907993e-05)
(-0.01387835491 0 -7.959278491e-05)
(-0.0123091115 0 -7.080931034e-05)
(-0.01208523142 0 -7.162310122e-05)
(-0.01203393186 0 -7.141266857e-05)
(-0.01188341311 0 -6.803270455e-05)
(-0.0104264219 0 -4.889294814e-05)
(-0.01026239496 0 -4.821929042e-05)
(-0.01027828158 0 -4.732153543e-05)
(-0.01021226149 0 -4.40354788e-05)
(-0.009407712878 0 -1.81579934e-05)
(-0.009319846471 0 -1.630662144e-05)
(-0.009312174457 0 -1.582753119e-05)
(-0.009331622192 0 -1.404618244e-05)
(-0.009264906821 0 9.410730216e-06)
(-0.009249275494 0 1.182792663e-05)
(-0.00921497539 0 1.250947937e-05)
(-0.009291817936 0 1.343548973e-05)
(-0.009836332283 0 3.208476019e-05)
(-0.009894973152 0 3.506556855e-05)
(-0.009874282963 0 3.609633513e-05)
(-0.009988572714 0 3.562791453e-05)
(-0.0110346289 0 4.072218303e-05)
(-0.01118594061 0 4.304044445e-05)
(-0.0112031426 0 4.442421269e-05)
(-0.01127375464 0 4.123910531e-05)
(-0.01212117606 0 1.828535349e-05)
(-0.01228587647 0 1.618368675e-05)
(-0.0123318325 0 1.588951013e-05)
(-0.0122879428 0 1.330032396e-05)
(-0.0121081983 0 -1.940215931e-05)
(-0.01212306022 0 -2.441406655e-05)
(-0.01210699152 0 -2.642887297e-05)
(-0.01204684599 0 -2.592510229e-05)
(-0.01110128496 0 -3.874746668e-05)
(-0.01098870171 0 -4.135834322e-05)
(-0.01089420276 0 -4.229584945e-05)
(-0.01089250198 0 -4.12441689e-05)
(-0.009891790786 0 -3.623170052e-05)
(-0.009764045578 0 -3.6235443e-05)
(-0.009638271664 0 -3.573479192e-05)
(-0.009686858783 0 -3.541372268e-05)
(-0.008965584889 0 -2.532511179e-05)
(-0.008877710393 0 -2.428781927e-05)
(-0.008752961148 0 -2.303288454e-05)
(-0.008825753433 0 -2.361949975e-05)
(-0.008349356254 0 -1.777021852e-05)
(-0.008299714585 0 -1.725751014e-05)
(-0.008187814583 0 -1.612661437e-05)
(-0.008261210274 0 -1.695806735e-05)
(-0.007864024145 0 -1.474371521e-05)
(-0.007822874916 0 -1.477981607e-05)
(-0.007721018999 0 -1.372074918e-05)
(-0.007789229982 0 -1.462264714e-05)
(-0.007432913411 0 -1.246183614e-05)
(-0.007393993658 0 -1.242793274e-05)
(-0.007294951453 0 -1.150346337e-05)
(-0.007365568086 0 -1.225912697e-05)
(-0.007317195357 0 -1.176195137e-05)
(-0.007050695588 0 -1.004492815e-05)
(-0.006959143343 0 -9.237826289e-06)
(-0.007028589466 0 -1.006776773e-05)
(-0.006989396293 0 -1.044892328e-05)
(-0.006765910592 0 -1.340233083e-05)
(-0.006706553309 0 -1.311692677e-05)
(-0.006740300533 0 -1.37749259e-05)
(-0.006668824136 0 -1.434895908e-05)
(-0.006283000055 0 -1.958316283e-05)
(-0.006223172507 0 -1.989724243e-05)
(-0.00624377322 0 -1.995386758e-05)
(-0.006163267266 0 -1.963211527e-05)
(-0.005687557424 0 -2.074359652e-05)
(-0.00562615044 0 -2.062366649e-05)
(-0.005645137514 0 -2.084639328e-05)
(-0.005579564255 0 -2.071177382e-05)
(-0.005157912559 0 -2.143546822e-05)
(-0.005118948422 0 -2.143896246e-05)
(-0.005119829762 0 -2.154858406e-05)
(-0.005043175268 0 -2.138785647e-05)
(-0.004598553171 0 -2.110785367e-05)
(-0.004557277329 0 -2.165656813e-05)
(-0.004559676303 0 -2.101063154e-05)
(-0.00449511828 0 -1.947176301e-05)
(-0.004154314156 0 -9.512318257e-06)
(-0.004102608071 0 -9.740998635e-06)
(-0.004130856008 0 -8.449058824e-06)
(-0.00413309586 0 -5.250399219e-06)
(-0.00427473143 0 2.064371965e-05)
(-0.004231116594 0 2.112859554e-05)
(-0.004302879119 0 2.325926429e-05)
(-0.004431435434 0 2.873994824e-05)
(-0.005585210086 0 7.892243652e-05)
(-0.005557168453 0 8.101844666e-05)
(-0.005708235216 0 8.385487082e-05)
(-0.006061241859 0 9.135465947e-05)
(-0.009325524355 0 0.0001762337991)
(-0.009471580977 0 0.0001838223818)
(-0.009565027933 0 0.0001856858043)
(-0.01016645012 0 0.0001922375666)
(-0.01651487044 0 0.0002964659473)
(-0.01711543945 0 0.0003127593745)
(-0.01717787401 0 0.0003175452764)
(-0.01797684336 0 0.0003162615849)
(-0.02634672847 0 0.0003668962427)
(-0.02730551931 0 0.0003830986436)
(-0.02755243394 0 0.0003818355582)
(-0.02851059494 0 0.000362790212)
(-0.03574141286 0 0.0003159714397)
(-0.03609450839 0 0.0003153722299)
(-0.03652398854 0 0.0002984268358)
(-0.04093445718 0 0.0002313329773)
(-0.04111253466 0 0.0002298077379)
(-0.04411339289 0 0.0002349793593)
(-0.04405965686 0 0.0002275586474)
(-0.04499476294 0 0.0002499567934)
(-0.04779579718 0 0.0003270742135)
(-0.04922890848 0 0.0003701134755)
(-0.05337656866 0 0.0005275799522)
(-0.06015644197 0 0.0007726336144)
(-0.06126441878 0 0.0008066984261)
(-0.06867106143 0 0.001052927351)
(-0.07734783543 0 0.001167828682)
(-0.0844934932 0 0.0009692710199)
(-0.08747951405 0 0.0004344253161)
(-0.08582152609 0 -0.0006714602014)
(-0.07722856807 0 -0.002225270948)
(-0.06396053681 0 -0.003656721454)
(-0.04866072656 0 -0.00451347213)
(-0.03433500528 0 -0.004538696416)
(-0.02286424599 0 -0.003927210212)
(-0.0146613621 0 -0.003067522252)
(-0.009206940636 0 -0.00224796191)
(-0.005736858094 0 -0.001583024061)
(-0.003583544061 0 -0.001092042455)
(-0.002255395054 0 -0.0007472645412)
(-0.001430495256 0 -0.000521022614)
(-0.0009072839897 0 -0.0003732218027)
(-0.0005658835637 0 -0.0002782506854)
(-0.0003371051741 0 -0.0002176888872)
(-0.000182890478 0 -0.0001768368987)
(-8.299524359e-05 0 -0.0001413584497)
(-2.608451971e-05 0 -9.915479022e-05)
(-1.671574829e-06 0 -4.170497559e-05)
(-1.704075503e-05 0 0.0005672191229)
(-0.0002722714674 0 0.00163921659)
(-0.0007898805951 0 0.002376481195)
(-0.001639797314 0 0.002635749964)
(-0.002766451752 0 0.002497315728)
(-0.00403655269 0 0.002078613565)
(-0.005290377226 0 0.001530448194)
(-0.006403678919 0 0.001019935176)
(-0.007355955716 0 0.0006960066143)
(-0.008257536463 0 0.0006133946325)
(-0.00927671712 0 0.0006645594606)
(-0.01045811023 0 0.0006353436477)
(-0.01159659904 0 0.000395574296)
(-0.01232429548 0 5.196079098e-05)
(-0.01250901988 0 -0.000172583791)
(-0.01240693498 0 -0.0001915123154)
(-0.01239205586 0 -4.221158624e-05)
(-0.01284664275 0 0.0001821478892)
(-0.01405443842 0 0.0004004745201)
(-0.01611516582 0 0.0005306563783)
(-0.01867296042 0 0.0005269261127)
(-0.02119266259 0 0.0004488505749)
(-0.02354989211 0 0.0003462653812)
(-0.02492494849 0 0.0002019981274)
(-0.02509189622 0 0.0001804471011)
(-0.02547698473 0 2.688406684e-05)
(-0.02480948945 0 -6.620301661e-05)
(-0.02454587922 0 -8.786040101e-05)
(-0.02328498419 0 -0.0001261709226)
(-0.02290706459 0 -0.0001349345731)
(-0.02284668351 0 -0.0001351990171)
(-0.02104854346 0 -0.0001485084325)
(-0.02094840791 0 -0.000149014068)
(-0.01894309668 0 -0.0001466812799)
(-0.01863867462 0 -0.0001493706364)
(-0.01856246158 0 -0.0001482560173)
(-0.01647767933 0 -0.0001315646394)
(-0.01616941885 0 -0.0001320691081)
(-0.01610004631 0 -0.0001315656979)
(-0.0159081458 0 -0.0001258406534)
(-0.01398102453 0 -8.988260617e-05)
(-0.01375751708 0 -8.805852109e-05)
(-0.01378197096 0 -8.659832444e-05)
(-0.01370173816 0 -8.086060437e-05)
(-0.01265233393 0 -3.353995272e-05)
(-0.01253479048 0 -2.989618383e-05)
(-0.01252469673 0 -2.900138416e-05)
(-0.0125520951 0 -2.585544441e-05)
(-0.01245511238 0 1.652343922e-05)
(-0.01242954648 0 2.08808212e-05)
(-0.01238178128 0 2.207280195e-05)
(-0.01248601879 0 2.398504621e-05)
(-0.01319267311 0 5.841427151e-05)
(-0.01326305739 0 6.375443348e-05)
(-0.01323200345 0 6.554915405e-05)
(-0.01338900657 0 6.496039886e-05)
(-0.01477606181 0 7.462923893e-05)
(-0.01497289782 0 7.859274392e-05)
(-0.01499460116 0 8.096055515e-05)
(-0.01508992551 0 7.540698763e-05)
(-0.01620294676 0 3.445862867e-05)
(-0.01641144508 0 3.044174208e-05)
(-0.01646785331 0 2.981880424e-05)
(-0.01641892788 0 2.51408898e-05)
(-0.01622278079 0 -3.368076749e-05)
(-0.01624157091 0 -4.271154705e-05)
(-0.01622227964 0 -4.631641256e-05)
(-0.01614633094 0 -4.5651001e-05)
(-0.01494256533 0 -6.991343041e-05)
(-0.01479410464 0 -7.453575204e-05)
(-0.01467568461 0 -7.625131277e-05)
(-0.01466992351 0 -7.447540148e-05)
(-0.01336694211 0 -6.642931381e-05)
(-0.01319465923 0 -6.621631839e-05)
(-0.01303741767 0 -6.534988409e-05)
(-0.01309337686 0 -6.477497079e-05)
(-0.01214209725 0 -4.708246311e-05)
(-0.01202085565 0 -4.498565552e-05)
(-0.01187028684 0 -4.27960921e-05)
(-0.01195152623 0 -4.377164255e-05)
(-0.01131282033 0 -3.335373566e-05)
(-0.01124068163 0 -3.224802533e-05)
(-0.01111254882 0 -3.036475174e-05)
(-0.01118866529 0 -3.169487816e-05)
(-0.01065545546 0 -2.773664278e-05)
(-0.01059529651 0 -2.766185337e-05)
(-0.01048254945 0 -2.613606802e-05)
(-0.01054959462 0 -2.736901108e-05)
(-0.01047016786 0 -2.656775887e-05)
(-0.0100131743 0 -2.336934863e-05)
(-0.009902123275 0 -2.20489351e-05)
(-0.00997416931 0 -2.304041824e-05)
(-0.009911664528 0 -2.217990705e-05)
(-0.009544714761 0 -1.87332372e-05)
(-0.009438305116 0 -1.736674776e-05)
(-0.009514524288 0 -1.873120092e-05)
(-0.009466324473 0 -1.9434191e-05)