/*--------------------------------*- C++ -*----------------------------------*\
| =========                 |                                                 |
| \\      /  F ield         | OpenFOAM: The Open Source CFD Toolbox           |
|  \\    /   O peration     | Version:  2206                                  |
|   \\  /    A nd           | Website:  www.openfoam.com                      |
|    \\/     M anipulation  |                                                 |
\*---------------------------------------------------------------------------*/
FoamFile
{
    version     2.0;
    format      ascii;
    arch        "LSB;label=32;scalar=64";
    class       volVectorField;
    location    "0";
    object      UMean;
}
// * * * * * * * * * * * * * * * * * * * * * * * * * * * * * * * * * * * * * //

dimensions      [0 1 -1 0 0 0 0];

internalField   nonuniform List<vector> 
31329
(
(0.0003120064757 0 0.0003186831834)
(0.0003307699137 0 0.0002485751321)
(-0.0001413707721 0 9.324622028e-05)
(-0.0005486391375 0 5.565098716e-05)
(-0.000893850554 0 4.212964501e-05)
(-0.00122568147 0 3.042284149e-05)
(-0.001514951907 0 1.987865201e-05)
(-0.001715748818 0 9.396753149e-06)
(-0.001787602289 0 -1.197848544e-06)
(-0.001695853292 0 -1.026431491e-05)
(-0.001441383743 0 -1.572642233e-05)
(-0.00107088873 0 -1.652043128e-05)
(-0.0006737026511 0 -1.313436885e-05)
(-0.000351006041 0 -7.535354941e-06)
(-0.0001832105944 0 -3.563320818e-06)
(-0.0001385797787 0 7.077058451e-07)
(-0.0002012327751 0 2.683396671e-06)
(-0.0003116019628 0 2.984318961e-06)
(-0.0004375344696 0 2.9800758e-06)
(-0.000609383879 0 3.937434072e-06)
(-0.0008626647759 0 4.531504937e-06)
(-0.001141863158 0 4.065987253e-06)
(-0.002198238332 0 1.009636152e-05)
(-0.002309584973 0 6.317914616e-06)
(-0.002414610714 0 6.603613596e-06)
(-0.002851347349 0 4.352373173e-06)
(-0.002495344698 0 1.309908247e-06)
(-0.002506806894 0 1.171506641e-06)
(-0.002555856142 0 2.82313584e-07)
(-0.002984521148 0 2.847182084e-07)
(-0.002711631597 0 2.546059131e-07)
(-0.002924887695 0 -9.568587757e-08)
(-0.002954515107 0 -1.015048977e-07)
(-0.002581852247 0 -3.431024169e-07)
(-0.003004645768 0 -4.920505072e-07)
(-0.002868538621 0 -4.494016087e-07)
(-0.002516967494 0 -4.722699307e-07)
(-0.002878555695 0 -6.309034134e-07)
(-0.002908198376 0 -6.449146934e-07)
(-0.002582157875 0 -5.11743388e-07)
(-0.002605582569 0 -5.727670371e-07)
(-0.002895328044 0 -7.092448465e-07)
(-0.002755547883 0 -6.443885103e-07)
(-0.002481839059 0 -5.191416699e-07)
(-0.002499976864 0 -3.888436876e-07)
(-0.002757762754 0 -4.687837392e-07)
(-0.002751864791 0 -4.665131595e-07)
(-0.002489317092 0 -3.821778153e-07)
(-0.002375620095 0 -2.721150464e-07)
(-0.002627173708 0 -3.313930983e-07)
(-0.002759999686 0 -3.621175597e-07)
(-0.002499153146 0 -3.023825917e-07)
(-0.002295503987 0 -3.412979955e-07)
(-0.002557888044 0 -4.31121804e-07)
(-0.002702116296 0 -4.796723801e-07)
(-0.002448527415 0 -3.981567874e-07)
(-0.002231485953 0 -3.523250869e-07)
(-0.002485418053 0 -4.423902898e-07)
(-0.00262904726 0 -4.9382404e-07)
(-0.002391625133 0 -4.096110214e-07)
(-0.002178077258 0 -2.603656849e-07)
(-0.00242835857 0 -3.208031549e-07)
(-0.002569926019 0 -3.544381847e-07)
(-0.002348817117 0 -3.010924194e-07)
(-0.002132116243 0 -2.688495082e-07)
(-0.002378941346 0 -3.386384591e-07)
(-0.002512363866 0 -3.759392738e-07)
(-0.002312129939 0 -3.21808836e-07)
(-0.00208127267 0 -3.003760872e-07)
(-0.002322095882 0 -3.777378453e-07)
(-0.002434481434 0 -4.135239434e-07)
(-0.002267847481 0 -3.623815402e-07)
(-0.002028481686 0 -3.061827422e-07)
(-0.002263807247 0 -3.847501017e-07)
(-0.002334446224 0 -4.091256474e-07)
(-0.002221935815 0 -3.719650528e-07)
(-0.001977309027 0 -3.041509588e-07)
(-0.002207946219 0 -3.799551263e-07)
(-0.002194793447 0 -3.736997829e-07)
(-0.002177727435 0 -3.721750289e-07)
(-0.001922005881 0 -4.000721529e-07)
(-0.002146926581 0 -5.054732359e-07)
(-0.001955977516 0 -4.200139061e-07)
(-0.002127092195 0 -5.017985818e-07)
(-0.001847322295 0 -5.970862669e-07)
(-0.002062122255 0 -7.548031078e-07)
(-0.001484882604 0 -3.55931167e-07)
(-0.002051353132 0 -7.572747427e-07)
(-0.001739820714 0 -9.429563926e-07)
(-0.001939629664 0 -1.193210579e-06)
(-0.001400347217 0 -5.705820079e-07)
(-0.001935785994 0 -1.209100195e-06)
(-0.001711875789 0 -9.884289532e-07)
(-0.00174655429 0 -1.952667044e-06)
(-0.001602699818 0 -1.655095655e-06)
(-0.001745763616 0 -1.996411759e-06)
(-0.001532588795 0 -1.633230355e-06)
(-0.001438009657 0 -3.051576491e-06)
(-0.001444460318 0 -3.103137937e-06)
(-0.001434628086 0 -3.142952054e-06)
(-0.001242315671 0 -2.555870489e-06)
(-0.0009840763155 0 -4.05592432e-06)
(-0.001021443898 0 -4.458157442e-06)
(-0.0009724161507 0 -4.201837784e-06)
(-0.0008230051449 0 -3.38318451e-06)
(-0.0004437454718 0 -4.016489382e-06)
(-0.0004517712289 0 -4.588380119e-06)
(-0.000422979722 0 -4.174536306e-06)
(-0.000344032299 0 -3.306137585e-06)
(-1.173842419e-05 0 -1.951786401e-06)
(2.004927797e-05 0 -2.248155684e-06)
(8.012519325e-06 0 -2.007968219e-06)
(4.305152837e-06 0 -1.543167966e-06)
(4.445584076e-05 0 9.222467939e-07)
(6.062728344e-05 0 1.153516703e-06)
(4.367729303e-05 0 1.028175504e-06)
(1.529964471e-05 0 8.388851764e-07)
(-0.0001928141856 0 1.94602524e-06)
(-0.0002265952043 0 2.341896512e-06)
(-0.0002168397145 0 2.096955467e-06)
(-0.0002084304008 0 1.667688794e-06)
(-0.0004289029838 0 1.514213863e-06)
(-0.0004890353316 0 1.790430481e-06)
(-0.0004624112317 0 1.630363851e-06)
(-0.0004208052359 0 1.331567098e-06)
(-0.0006165203766 0 2.20413645e-06)
(-0.0006820990348 0 2.632294642e-06)
(-0.0006601497488 0 2.432445069e-06)
(-0.00062437449 0 2.060438084e-06)
(-0.00104200563 0 4.909049599e-06)
(-0.001167029 0 5.963547938e-06)
(-0.001178684675 0 6.000514765e-06)
(-0.001121881862 0 5.04819085e-06)
(-0.001899304132 0 8.596095532e-06)
(-0.002171582461 0 1.057967855e-05)
(-0.002292321548 0 1.15889637e-05)
(-0.002137667265 0 9.587491339e-06)
(-0.00326554142 0 1.316286008e-05)
(-0.00377890397 0 1.653618977e-05)
(-0.003776516153 0 1.628267126e-05)
(-0.003437506234 0 1.265958788e-05)
(-0.005400077097 0 2.070437277e-05)
(-0.005713579055 0 2.259112816e-05)
(-0.005069707828 0 1.709871053e-05)
(-0.007548339131 0 2.796992712e-05)
(-0.007560334348 0 2.763965772e-05)
(-0.008919987415 0 3.155100974e-05)
(-0.009911722545 0 3.749674139e-05)
(-0.008863500974 0 2.888506558e-05)
(-0.01119366891 0 4.0727752e-05)
(-0.01119465089 0 3.864647236e-05)
(-0.01603075366 0 6.998755167e-05)
(-0.01808903816 0 7.742043682e-05)
(-0.01799349868 0 7.439499406e-05)
(-0.02303431237 0 9.742971721e-05)
(-0.01851502062 0 4.467457927e-05)
(-0.01942104179 0 2.287812371e-05)
(-0.01892482213 0 -1.650497167e-05)
(-0.01664132331 0 -6.95932194e-05)
(-0.01292218892 0 -0.0001158181482)
(-0.008734765464 0 -0.0001309111354)
(-0.005175489292 0 -0.0001104707043)
(-0.002790436427 0 -7.444969848e-05)
(-0.00143904508 0 -4.356453459e-05)
(-0.0007481498666 0 -2.273610638e-05)
(-0.0004275721668 0 -1.056605685e-05)
(-0.0002925266304 0 -4.109704984e-06)
(-0.0002412348203 0 -1.167692695e-06)
(-0.0002094972614 0 -6.374574531e-08)
(-0.0001962085126 0 -5.346912103e-07)
(-0.0001771845846 0 -1.419734029e-06)
(-0.0001509947371 0 -2.433860032e-06)
(-0.000119436847 0 -3.371325596e-06)
(-8.465033964e-05 0 -4.64036357e-06)
(-4.973965155e-05 0 -5.72026487e-06)
(-2.09616629e-05 0 -5.402031177e-06)
(-3.258342821e-06 0 -3.235217159e-06)
(0.0002032220762 0 0.0005053252363)
(0.0001185426254 0 0.0006431710429)
(-0.0005161373266 0 0.0005789610531)
(-0.001396732552 0 0.0005145333376)
(-0.002346074781 0 0.0004437133858)
(-0.003306294716 0 0.0003543334183)
(-0.004157012241 0 0.0002448924833)
(-0.004762211471 0 0.0001237473141)
(-0.005007306241 0 1.662783172e-06)
(-0.004796968186 0 -0.0001025833792)
(-0.004132335953 0 -0.0001675722667)
(-0.00313632217 0 -0.0001819164406)
(-0.002048754509 0 -0.0001498583415)
(-0.001146202388 0 -9.198263281e-05)
(-0.0006205445369 0 -3.696224496e-05)
(-0.0004774192758 0 1.820315703e-06)
(-0.0006196758318 0 1.956178689e-05)
(-0.0008893157741 0 2.296177708e-05)
(-0.001206772005 0 2.401506232e-05)
(-0.001642687595 0 2.983451704e-05)
(-0.002271440118 0 3.238825107e-05)
(-0.002944064999 0 2.811268893e-05)
(-0.003625730219 0 2.930567531e-05)
(-0.004166470116 0 2.12363091e-05)
(-0.004243148925 0 2.065124732e-05)
(-0.004635605094 0 1.236371809e-05)
(-0.004820627109 0 5.636228461e-06)
(-0.004783476525 0 4.263990293e-06)
(-0.004914668156 0 1.480368349e-06)
(-0.004892715746 0 9.730233418e-07)
(-0.004930466032 0 9.891296318e-07)
(-0.004939424145 0 -2.796328857e-07)
(-0.004939322386 0 -3.184330085e-07)
(-0.004873197839 0 -1.200014073e-06)
(-0.004882822803 0 -1.400926438e-06)
(-0.004877087244 0 -1.38322385e-06)
(-0.004769926602 0 -1.715775458e-06)
(-0.004774082232 0 -1.867034517e-06)
(-0.004771559431 0 -1.88179361e-06)
(-0.004745253541 0 -1.789561652e-06)
(-0.004633868602 0 -1.845878892e-06)
(-0.004627879229 0 -1.940528398e-06)
(-0.004628849881 0 -1.889974718e-06)
(-0.004604300303 0 -1.763407625e-06)
(-0.004499211036 0 -1.345646041e-06)
(-0.004499896077 0 -1.359846602e-06)
(-0.004498051613 0 -1.353300931e-06)
(-0.004483038827 0 -1.293761987e-06)
(-0.004407319898 0 -1.048115209e-06)
(-0.004414317186 0 -1.058527436e-06)
(-0.004408686465 0 -1.05621666e-06)
(-0.004401464037 0 -1.053003802e-06)
(-0.004317171659 0 -1.232361391e-06)
(-0.004323450029 0 -1.320948558e-06)
(-0.004315860892 0 -1.355760642e-06)
(-0.004309827607 0 -1.301726385e-06)
(-0.004211636287 0 -1.26552656e-06)
(-0.004214097824 0 -1.334688916e-06)
(-0.004201138106 0 -1.365795303e-06)
(-0.004202778898 0 -1.297943798e-06)
(-0.004123083517 0 -1.013742237e-06)
(-0.004128611317 0 -1.025391902e-06)
(-0.004112491887 0 -1.020446221e-06)
(-0.004119070459 0 -1.010343979e-06)
(-0.00404727642 0 -1.009830763e-06)
(-0.004054407945 0 -1.063019619e-06)
(-0.004033150721 0 -1.073452185e-06)
(-0.004044909633 0 -1.057038037e-06)
(-0.003963233326 0 -1.108808002e-06)
(-0.0039682365 0 -1.175293085e-06)
(-0.003936690581 0 -1.184936275e-06)
(-0.003959001131 0 -1.167280912e-06)
(-0.003875061565 0 -1.139118026e-06)
(-0.003879417142 0 -1.197178661e-06)
(-0.003834068937 0 -1.187234753e-06)
(-0.003870987053 0 -1.18867839e-06)
(-0.003788580991 0 -1.168820498e-06)
(-0.003793387307 0 -1.220002307e-06)
(-0.003730614925 0 -1.166034692e-06)
(-0.003785280529 0 -1.226788176e-06)
(-0.003692967997 0 -1.503786103e-06)
(-0.003697032529 0 -1.608820471e-06)
(-0.003616790772 0 -1.48168495e-06)
(-0.003687482853 0 -1.637463081e-06)
(-0.00356052167 0 -2.219720374e-06)
(-0.003559613333 0 -2.393853503e-06)
(-0.003475727259 0 -1.980381533e-06)
(-0.003546788652 0 -2.451204914e-06)
(-0.00350939307 0 -2.45807103e-06)
(-0.003355893622 0 -3.780352544e-06)
(-0.003277587496 0 -3.13190702e-06)
(-0.003336971472 0 -3.886619675e-06)
(-0.003285777613 0 -3.915200561e-06)
(-0.003029212138 0 -6.151863165e-06)
(-0.002963001097 0 -5.72617679e-06)
(-0.002999439939 0 -6.329142546e-06)
(-0.002926015914 0 -6.329443029e-06)
(-0.002503715513 0 -9.516332922e-06)
(-0.002456636217 0 -9.370978271e-06)
(-0.002458107661 0 -9.753191369e-06)
(-0.002357879547 0 -9.543031329e-06)
(-0.001730275636 0 -1.255059041e-05)
(-0.001687136743 0 -1.275087145e-05)
(-0.001668634746 0 -1.275884309e-05)
(-0.001557263577 0 -1.208895881e-05)
(-0.0008096827829 0 -1.239417873e-05)
(-0.0007541646783 0 -1.279465429e-05)
(-0.0007440049974 0 -1.23989349e-05)
(-0.0006640361282 0 -1.1176652e-05)
(-7.082732438e-05 0 -6.227495955e-06)
(-3.31609928e-06 0 -6.232149386e-06)
(-2.783669665e-05 0 -5.890149699e-06)
(-3.474098422e-05 0 -4.849786985e-06)
(3.700034142e-05 0 2.477333703e-06)
(6.310638027e-05 0 3.108340311e-06)
(3.25398329e-05 0 2.967364467e-06)
(-2.374045022e-05 0 2.95668958e-06)
(-0.0003665288459 0 6.114779249e-06)
(-0.0003930703333 0 6.621614789e-06)
(-0.0004025569906 0 6.359706384e-06)
(-0.0004387641119 0 5.844507262e-06)
(-0.0007967391357 0 5.395040328e-06)
(-0.000827072127 0 5.422087951e-06)
(-0.0008307127934 0 5.445806758e-06)
(-0.0008503749645 0 5.403409865e-06)
(-0.001165205849 0 7.843531659e-06)
(-0.001166414457 0 8.027264213e-06)
(-0.001195764851 0 8.182791155e-06)
(-0.001266414909 0 8.539215628e-06)
(-0.002000662656 0 1.70041584e-05)
(-0.002035470411 0 1.815000578e-05)
(-0.002056339209 0 1.831430216e-05)
(-0.002188963712 0 1.834058654e-05)
(-0.003693438396 0 3.047023235e-05)
(-0.003840670514 0 3.286168123e-05)
(-0.003855472378 0 3.363580485e-05)
(-0.004045233374 0 3.302143941e-05)
(-0.00623189638 0 4.594974075e-05)
(-0.006463919365 0 4.938159213e-05)
(-0.006539948424 0 4.950370349e-05)
(-0.006876841202 0 4.80086641e-05)
(-0.009504350113 0 6.457041037e-05)
(-0.009612405965 0 6.611197895e-05)
(-0.009998200498 0 6.386154821e-05)
(-0.01299857739 0 8.469342019e-05)
(-0.0131620982 0 8.522428635e-05)
(-0.01660378764 0 0.0001067644216)
(-0.01673629278 0 0.0001096367942)
(-0.0175989953 0 0.0001103556079)
(-0.02091396102 0 0.000137292185)
(-0.02222544819 0 0.0001470738318)
(-0.02642286959 0 0.0001956630344)
(-0.03186272428 0 0.0002341210669)
(-0.03264030742 0 0.0002353961765)
(-0.03759797553 0 0.0002567613284)
(-0.04160790174 0 0.0001890366545)
(-0.04397171276 0 7.471370642e-05)
(-0.04315780514 0 -0.0001398381676)
(-0.03828186692 0 -0.0004360696347)
(-0.03012355993 0 -0.0007035356465)
(-0.02078259236 0 -0.0008113482763)
(-0.01266635654 0 -0.0007192688513)
(-0.007067271487 0 -0.0005194999304)
(-0.003780611685 0 -0.0003282910488)
(-0.002032257846 0 -0.0001876884345)
(-0.001183942931 0 -9.753512125e-05)
(-0.0008062510461 0 -4.563932861e-05)
(-0.0006495489798 0 -2.000418012e-05)
(-0.0005802171832 0 -1.12505353e-05)
(-0.0005263670534 0 -1.414863289e-05)
(-0.0004624570898 0 -2.239362373e-05)
(-0.0003828119396 0 -3.248558172e-05)
(-0.0002915351261 0 -4.209360593e-05)
(-0.0001968136354 0 -5.011956359e-05)
(-0.0001096866881 0 -5.23696572e-05)
(-4.340278883e-05 0 -4.353771983e-05)
(-5.295482632e-06 0 -2.081529536e-05)
(1.209157317e-05 0 0.0004255575651)
(-0.0002475507802 0 0.001027536813)
(-0.001011326532 0 0.001331323971)
(-0.002201281734 0 0.001411532687)
(-0.003651164898 0 0.001311854966)
(-0.005174844976 0 0.001083737981)
(-0.006558722796 0 0.000764534588)
(-0.007568787135 0 0.0004001093043)
(-0.008010171018 0 3.2907505e-05)
(-0.007734976384 0 -0.0002803304615)
(-0.00674418531 0 -0.0004784705947)
(-0.005223130801 0 -0.0005286129708)
(-0.003535610075 0 -0.0004420603104)
(-0.002107733003 0 -0.0002773523024)
(-0.001247144122 0 -0.000114264217)
(-0.000986313381 0 5.482337855e-07)
(-0.001187920215 0 5.483449733e-05)
(-0.00160990343 0 6.757360573e-05)
(-0.002138412529 0 7.360133356e-05)
(-0.002885304067 0 9.142892468e-05)
(-0.003962242309 0 9.889772624e-05)
(-0.005124722738 0 8.616194289e-05)
(-0.006256071135 0 7.922307627e-05)
(-0.007174419753 0 5.846155661e-05)
(-0.007303168417 0 5.607582584e-05)
(-0.007971727054 0 3.329304079e-05)
(-0.008297797515 0 1.651932972e-05)
(-0.008289502358 0 1.239934529e-05)
(-0.008471443819 0 4.802800035e-06)
(-0.008446260764 0 3.082968361e-06)
(-0.008496654242 0 3.159014324e-06)
(-0.008514289134 0 -5.813999261e-07)
(-0.00851362812 0 -7.163432224e-07)
(-0.008416959769 0 -3.176693877e-06)
(-0.008420369088 0 -3.674185772e-06)
(-0.008413790048 0 -3.662056886e-06)
(-0.008246222167 0 -4.663080412e-06)
(-0.008240789377 0 -4.967803025e-06)
(-0.008235757608 0 -5.000929602e-06)
(-0.008202281592 0 -4.852739642e-06)
(-0.008015151289 0 -4.929580314e-06)
(-0.007998158554 0 -5.077215926e-06)
(-0.008001745119 0 -4.984845076e-06)
(-0.007970189181 0 -4.735309928e-06)
(-0.007793765634 0 -3.665979569e-06)
(-0.007786739374 0 -3.623466311e-06)
(-0.007783759362 0 -3.606043161e-06)
(-0.007766822476 0 -3.517435096e-06)
(-0.007641425453 0 -2.95038405e-06)
(-0.007644011274 0 -2.919388896e-06)
(-0.007632932068 0 -2.883525855e-06)
(-0.007626314773 0 -2.936497682e-06)
(-0.007488144071 0 -3.419344582e-06)
(-0.007488495544 0 -3.591523593e-06)
(-0.007474187307 0 -3.652759349e-06)
(-0.007469066973 0 -3.567092025e-06)
(-0.007309810151 0 -3.487567301e-06)
(-0.007304324534 0 -3.591099729e-06)
(-0.00728213215 0 -3.634299082e-06)
(-0.007288300972 0 -3.514377964e-06)
(-0.007160071438 0 -2.858319028e-06)
(-0.007159846836 0 -2.823511737e-06)
(-0.007133962685 0 -2.776200323e-06)
(-0.007146207085 0 -2.800021006e-06)
(-0.007030091471 0 -2.836149278e-06)
(-0.007032345314 0 -2.917691142e-06)
(-0.007000285884 0 -2.915122542e-06)
(-0.007018319792 0 -2.919141189e-06)
(-0.006886298505 0 -3.096833612e-06)
(-0.006885151401 0 -3.210274081e-06)
(-0.006840214061 0 -3.211071936e-06)
(-0.006871186968 0 -3.203186768e-06)
(-0.006736112749 0 -3.184952511e-06)
(-0.006734135345 0 -3.267777347e-06)
(-0.006673580619 0 -3.222366719e-06)
(-0.006721053556 0 -3.258568402e-06)
(-0.006587779651 0 -3.314131542e-06)
(-0.006586555573 0 -3.383174844e-06)
(-0.006508915509 0 -3.245291922e-06)
(-0.006573442782 0 -3.418605615e-06)
(-0.006421880844 0 -4.259761816e-06)
(-0.006419264183 0 -4.460047202e-06)
(-0.006328035516 0 -4.211090956e-06)
(-0.006403140346 0 -4.562582571e-06)
(-0.006191761714 0 -6.275935373e-06)
(-0.006180823348 0 -6.62987011e-06)
(-0.006090882872 0 -5.965479625e-06)
(-0.006158537087 0 -6.821269022e-06)
(-0.005850037677 0 -9.856538412e-06)
(-0.005826879338 0 -1.046118646e-05)
(-0.005743185323 0 -9.425831213e-06)
(-0.005793514084 0 -1.079816341e-05)
(-0.005712660456 0 -1.122205802e-05)
(-0.005259944173 0 -1.695645525e-05)
(-0.005183484073 0 -1.618213188e-05)
(-0.005207453828 0 -1.748945953e-05)
(-0.00508753699 0 -1.801601654e-05)
(-0.004353300722 0 -2.605585016e-05)
(-0.00429057908 0 -2.575136071e-05)
(-0.004273514853 0 -2.671718865e-05)
(-0.004106872309 0 -2.685499631e-05)
(-0.003027794566 0 -3.417242575e-05)
(-0.002959201875 0 -3.452139427e-05)
(-0.002920881359 0 -3.466127071e-05)
(-0.002734252536 0 -3.359891394e-05)
(-0.001458071851 0 -3.365032636e-05)
(-0.00136292764 0 -3.436850738e-05)
(-0.001344837633 0 -3.344788853e-05)
(-0.001209943069 0 -3.062930693e-05)
(-0.0001988590526 0 -1.706199204e-05)
(-8.190132061e-05 0 -1.674311398e-05)
(-0.0001247879695 0 -1.586282222e-05)
(-0.0001365979286 0 -1.306011171e-05)
(-1.094760306e-05 0 6.487929081e-06)
(3.6138023e-05 0 8.279717845e-06)
(-1.831690157e-05 0 7.986465822e-06)
(-0.0001169705746 0 8.280386674e-06)
(-0.0007095400488 0 1.700766098e-05)
(-0.000752393482 0 1.820473215e-05)
(-0.0007722487014 0 1.765149005e-05)
(-0.0008417493904 0 1.661914018e-05)
(-0.001486365432 0 1.589724521e-05)
(-0.001537015613 0 1.563100289e-05)
(-0.001547642371 0 1.593973113e-05)
(-0.001592646171 0 1.631483592e-05)
(-0.002187543723 0 2.322685667e-05)
(-0.00218748204 0 2.325829512e-05)
(-0.002244236539 0 2.407257189e-05)
(-0.002382156571 0 2.59103851e-05)
(-0.003734182325 0 4.912973269e-05)
(-0.003793479356 0 5.15042668e-05)
(-0.003831979202 0 5.202024026e-05)
(-0.004081617241 0 5.352735457e-05)
(-0.006797241486 0 8.732208522e-05)
(-0.00705254946 0 9.24827145e-05)
(-0.007075743677 0 9.380048002e-05)
(-0.007430270425 0 9.449264329e-05)
(-0.01133032816 0 0.0001305558076)
(-0.01172450618 0 0.0001372803056)
(-0.01186278655 0 0.0001380296416)
(-0.01249298917 0 0.000138318914)
(-0.01709779093 0 0.0001794866869)
(-0.01727937109 0 0.0001821660846)
(-0.01800330942 0 0.0001823976856)
(-0.02320131874 0 0.000233001311)
(-0.02349175339 0 0.000235179543)
(-0.0294711696 0 0.0002960473762)
(-0.02974807186 0 0.0002992651251)
(-0.03122142457 0 0.0003115111008)
(-0.0370757774 0 0.000380996819)
(-0.03910240093 0 0.0004097998281)
(-0.04607453584 0 0.0005157207765)
(-0.05488103765 0 0.0006082059829)
(-0.05613307214 0 0.0006131183483)
(-0.06380187018 0 0.0006304191331)
(-0.06995303548 0 0.0004653531761)
(-0.0726520868 0 0.0001213822637)
(-0.07009368163 0 -0.0004944129414)
(-0.06134067937 0 -0.001309203066)
(-0.04795902161 0 -0.002019876758)
(-0.0331844262 0 -0.002296071166)
(-0.02046673127 0 -0.002041039252)
(-0.01162803061 0 -0.001495546673)
(-0.006347649379 0 -0.0009654807536)
(-0.003470288119 0 -0.0005677534892)
(-0.002029524216 0 -0.0003063036052)
(-0.001358472524 0 -0.0001524779084)
(-0.001058119478 0 -7.469101096e-05)
(-0.0009101770754 0 -4.701994784e-05)
(-0.0008002033509 0 -5.244039399e-05)
(-0.0006839037609 0 -7.413738195e-05)
(-0.0005504171228 0 -0.0001013225662)
(-0.0004058765264 0 -0.0001260925985)
(-0.0002641205918 0 -0.0001418302563)
(-0.0001415577498 0 -0.0001393620198)
(-5.362371441e-05 0 -0.0001101919378)
(-5.841226975e-06 0 -4.975247789e-05)
(-4.039173146e-05 0 0.0006314364194)
(-0.0004942975757 0 0.001738857225)
(-0.001454316301 0 0.0025012888)
(-0.002942499178 0 0.002814095499)
(-0.004803280059 0 0.002721132538)
(-0.006803500294 0 0.002304454514)
(-0.008657644521 0 0.001658592831)
(-0.01004869539 0 0.0008915138544)
(-0.01069451983 0 0.00011487129)
(-0.01040689829 0 -0.0005470296895)
(-0.009188945499 0 -0.0009696286208)
(-0.007275405314 0 -0.001086534586)
(-0.005118821919 0 -0.0009201259824)
(-0.003256915984 0 -0.0005876085908)
(-0.002095705122 0 -0.0002490913444)
(-0.001707232142 0 -7.433287953e-06)
(-0.001935174329 0 0.0001107893164)
(-0.002480471194 0 0.0001432911097)
(-0.00321366458 0 0.0001620568814)
(-0.004283775544 0 0.0002023871317)
(-0.005827986538 0 0.0002190482394)
(-0.007510678521 0 0.0001917534275)
(-0.009116119634 0 0.0001672668833)
(-0.010428342 0 0.0001240747432)
(-0.01061119276 0 0.000118301347)
(-0.0115644579 0 7.021135794e-05)
(-0.01204691843 0 3.645697723e-05)
(-0.01207253757 0 2.760510909e-05)
(-0.01231843915 0 1.14681253e-05)
(-0.01229257305 0 7.563009556e-06)
(-0.01235694121 0 7.701165253e-06)
(-0.01239316919 0 -7.208884751e-07)
(-0.0123922317 0 -1.04511304e-06)
(-0.01226939721 0 -6.412311677e-06)
(-0.01226540832 0 -7.435775066e-06)
(-0.01225897472 0 -7.441966706e-06)
(-0.01203371324 0 -9.653101923e-06)
(-0.0120179164 0 -1.020051032e-05)
(-0.0120102559 0 -1.026396508e-05)
(-0.01197090522 0 -1.004100927e-05)
(-0.01171064233 0 -1.013215787e-05)
(-0.01168098277 0 -1.033814288e-05)
(-0.01168875879 0 -1.018894947e-05)
(-0.01165102105 0 -9.759426562e-06)
(-0.01140534438 0 -7.63833399e-06)
(-0.01139020984 0 -7.482768855e-06)
(-0.01138612136 0 -7.448223917e-06)
(-0.01136763797 0 -7.334695916e-06)
(-0.01119061277 0 -6.308748279e-06)
(-0.01118807004 0 -6.203188326e-06)
(-0.01116990136 0 -6.106792915e-06)
(-0.01116544326 0 -6.267020279e-06)
(-0.01097001371 0 -7.269983276e-06)
(-0.01096330517 0 -7.569330446e-06)
(-0.01094018447 0 -7.667691454e-06)
(-0.01093815003 0 -7.539660926e-06)
(-0.01071667527 0 -7.366877806e-06)
(-0.01070259711 0 -7.503370413e-06)
(-0.01066910809 0 -7.553062115e-06)
(-0.01068190954 0 -7.365518114e-06)
(-0.01050360298 0 -6.121672551e-06)
(-0.01049699025 0 -5.996189571e-06)
(-0.01045917228 0 -5.869867844e-06)
(-0.01047911293 0 -5.964008968e-06)
(-0.0103155635 0 -6.08670049e-06)
(-0.01031200514 0 -6.204331809e-06)
(-0.01026678772 0 -6.173306059e-06)
(-0.01029327996 0 -6.222404157e-06)
(-0.01010817425 0 -6.618627579e-06)
(-0.01010002549 0 -6.795529234e-06)
(-0.01003964066 0 -6.775915309e-06)
(-0.01008117985 0 -6.793390074e-06)
(-0.00989262881 0 -6.814394039e-06)
(-0.00988361464 0 -6.921853352e-06)
(-0.009806689266 0 -6.813453543e-06)
(-0.009865640534 0 -6.917569661e-06)
(-0.009677885886 0 -7.171358731e-06)
(-0.009669792589 0 -7.261370464e-06)
(-0.009577414137 0 -6.991461108e-06)
(-0.009651233992 0 -7.354702526e-06)
(-0.009434553058 0 -9.244651288e-06)
(-0.00942409519 0 -9.596293641e-06)
(-0.009322980909 0 -9.177728366e-06)
(-0.009400728389 0 -9.83808013e-06)
(-0.009096607937 0 -1.361591117e-05)
(-0.009074222363 0 -1.426310146e-05)
(-0.008979524418 0 -1.329277336e-05)
(-0.00904147073 0 -1.470401352e-05)
(-0.008594360448 0 -2.136849673e-05)
(-0.008554179616 0 -2.249524146e-05)
(-0.008466224888 0 -2.099735629e-05)
(-0.008504821368 0 -2.325569055e-05)
(-0.008391603098 0 -2.446359423e-05)
(-0.007722719996 0 -3.632508838e-05)
(-0.007636279236 0 -3.512213081e-05)
(-0.007645310839 0 -3.749846665e-05)
(-0.007475263088 0 -3.906796703e-05)
(-0.006402819715 0 -5.54790469e-05)
(-0.006322998613 0 -5.501411251e-05)
(-0.006286135989 0 -5.688630151e-05)
(-0.006048937014 0 -5.778389324e-05)
(-0.004488991698 0 -7.238125455e-05)
(-0.004391936993 0 -7.300858372e-05)
(-0.004333951036 0 -7.333587051e-05)
(-0.004068287973 0 -7.17481041e-05)
(-0.002236839298 0 -7.108928354e-05)
(-0.002098895614 0 -7.229747806e-05)
(-0.002073576362 0 -7.046616306e-05)
(-0.001880656175 0 -6.496475145e-05)
(-0.000431541048 0 -3.622108306e-05)
(-0.0002623084071 0 -3.527048005e-05)
(-0.0003247912098 0 -3.343842352e-05)
(-0.000340368045 0 -2.75226936e-05)
(-0.0001549825398 0 1.35959771e-05)
(-8.4171202e-05 0 1.742354726e-05)
(-0.0001654328732 0 1.69287983e-05)
(-0.0003100282168 0 1.79160206e-05)
(-0.001178203217 0 3.702315218e-05)
(-0.001236448319 0 3.940998487e-05)
(-0.001270787651 0 3.842022959e-05)
(-0.001381264861 0 3.664366522e-05)
(-0.002372128066 0 3.624196806e-05)
(-0.002444761617 0 3.54043699e-05)
(-0.002466921434 0 3.631421497e-05)
(-0.002547284172 0 3.762564668e-05)
(-0.003511057603 0 5.328757403e-05)
(-0.003511075442 0 5.296058829e-05)
(-0.003602552415 0 5.508548326e-05)
(-0.003824488958 0 5.984681958e-05)
(-0.005951562996 0 0.0001102170064)
(-0.006044608126 0 0.000114673454)
(-0.006104815914 0 0.000115850397)
(-0.006493643686 0 0.0001203925416)
(-0.01066325339 0 0.0001936969378)
(-0.01105066581 0 0.0002035715021)
(-0.0110838868 0 0.0002056610735)
(-0.01163139467 0 0.0002092842065)
(-0.01753309392 0 0.0002869713263)
(-0.01811888278 0 0.0002989895384)
(-0.01832931026 0 0.0003009543304)
(-0.01929351164 0 0.0003053642938)
(-0.02615394397 0 0.0003888564814)
(-0.02641859425 0 0.0003931608445)
(-0.02752063396 0 0.000399162696)
(-0.03515868354 0 0.0004998569862)
(-0.0355892819 0 0.0005050390086)
(-0.0443046868 0 0.0006330200682)
(-0.04473878713 0 0.0006364971988)
(-0.04685706497 0 0.0006695195692)
(-0.05535964072 0 0.0008100155397)
(-0.0580719976 0 0.0008670543756)
(-0.06771262089 0 0.001055514828)
(-0.07943758397 0 0.001210731464)
(-0.08106938778 0 0.00121703243)
(-0.090569209 0 0.001180973629)
(-0.09768830073 0 0.0008239921375)
(-0.09954843365 0 6.859332996e-05)
(-0.09419326469 0 -0.001228541963)
(-0.08132150338 0 -0.002855163347)
(-0.06328907937 0 -0.004224757146)
(-0.04405519568 0 -0.004732401115)
(-0.02757868387 0 -0.004210922043)
(-0.01598276923 0 -0.003120229832)
(-0.00890737986 0 -0.002049512604)
(-0.004948376435 0 -0.001232885264)
(-0.002899434379 0 -0.0006853211016)
(-0.001902439311 0 -0.0003571367777)
(-0.001427339919 0 -0.0001875352356)
(-0.00117775139 0 -0.0001237070727)
(-0.0009989579239 0 -0.0001284747976)
(-0.0008274142704 0 -0.0001675734767)
(-0.0006461564311 0 -0.0002174035253)
(-0.0004618713572 0 -0.0002599039759)
(-0.0002909241649 0 -0.000279950367)
(-0.0001506893626 0 -0.0002634441779)
(-5.488464469e-05 0 -0.0002004397432)
(-5.448502823e-06 0 -8.686303934e-05)
(-5.765995795e-05 0 0.001089148736)
(-0.0006378531433 0 0.002885600017)
(-0.001785325849 0 0.004170195104)
(-0.003529258852 0 0.004781715513)
(-0.005721327942 0 0.004717387178)
(-0.008108891772 0 0.004064412968)
(-0.01035629992 0 0.002975547614)
(-0.01208211695 0 0.001641364734)
(-0.01293371307 0 0.0002772591305)
(-0.01269111023 0 -0.000884541191)
(-0.01136410028 0 -0.001629519731)
(-0.00922362886 0 -0.001850699918)
(-0.006770154741 0 -0.001586420078)
(-0.004605653403 0 -0.00103056522)
(-0.003207200902 0 -0.0004503162989)
(-0.002695723077 0 -2.736152881e-05)
(-0.00291547701 0 0.0001865987594)
(-0.003548698044 0 0.0002544552225)
(-0.004471626521 0 0.0002990998296)
(-0.005868031879 0 0.0003766531066)
(-0.007887108771 0 0.0004086559369)
(-0.01010953959 0 0.0003594936166)
(-0.01220271628 0 0.0003050871291)
(-0.01391594174 0 0.000226426621)
(-0.01415378787 0 0.0002152011405)
(-0.0153950784 0 0.0001280634167)
(-0.01604840313 0 6.866617545e-05)
(-0.01611348101 0 5.26628912e-05)
(-0.01643815498 0 2.314210504e-05)
(-0.01641602014 0 1.58193602e-05)
(-0.0164945049 0 1.597933899e-05)
(-0.01656138696 0 -2.759887564e-07)
(-0.01656056212 0 -9.243450273e-07)
(-0.01641869789 0 -1.105167126e-05)
(-0.01640616086 0 -1.292948422e-05)
(-0.016401157 0 -1.296698111e-05)
(-0.01612427853 0 -1.710266394e-05)
(-0.0160975848 0 -1.801512057e-05)
(-0.01608724418 0 -1.812489344e-05)
(-0.01604389442 0 -1.779683172e-05)
(-0.01571637251 0 -1.790672094e-05)
(-0.0156724279 0 -1.817882313e-05)
(-0.01568617148 0 -1.795671531e-05)
(-0.01564345798 0 -1.728025605e-05)
(-0.01533289557 0 -1.3674786e-05)
(-0.01530929406 0 -1.334570212e-05)
(-0.01530415862 0 -1.328794181e-05)
(-0.0152846931 0 -1.3158412e-05)
(-0.01505479451 0 -1.157766632e-05)
(-0.01504625713 0 -1.137330051e-05)
(-0.01501916015 0 -1.118882053e-05)
(-0.01501878059 0 -1.151145368e-05)
(-0.01476372588 0 -1.329557449e-05)
(-0.0147487094 0 -1.37797902e-05)
(-0.01471452115 0 -1.392835394e-05)
(-0.01471813911 0 -1.374016128e-05)
(-0.0144350046 0 -1.338123918e-05)
(-0.01441175361 0 -1.354683316e-05)
(-0.01436492785 0 -1.359179205e-05)
(-0.01438660526 0 -1.332231315e-05)
(-0.01415766536 0 -1.124547107e-05)
(-0.01414397395 0 -1.098332117e-05)
(-0.01409218803 0 -1.073418693e-05)
(-0.01412182347 0 -1.094327033e-05)
(-0.01390832818 0 -1.122905605e-05)
(-0.01389788987 0 -1.139994111e-05)
(-0.01383749021 0 -1.132286681e-05)
(-0.01387440577 0 -1.144456394e-05)
(-0.01363441501 0 -1.216250005e-05)
(-0.01361836099 0 -1.242472533e-05)
(-0.01354117109 0 -1.236837664e-05)
(-0.01359459383 0 -1.243198978e-05)
(-0.01335111639 0 -1.253831798e-05)
(-0.01333432581 0 -1.267502048e-05)
(-0.01324089026 0 -1.246805549e-05)
(-0.01331128921 0 -1.268555958e-05)
(-0.01306587851 0 -1.333898172e-05)
(-0.01304997468 0 -1.346546581e-05)
(-0.01294403036 0 -1.300410489e-05)
(-0.01302555291 0 -1.365825362e-05)
(-0.01273799504 0 -1.726931848e-05)
(-0.01271837955 0 -1.785685732e-05)
(-0.01260921978 0 -1.720415234e-05)
(-0.01268710138 0 -1.832647197e-05)
(-0.01228203009 0 -2.543513359e-05)
(-0.01224664832 0 -2.653756778e-05)
(-0.01214911718 0 -2.516221258e-05)
(-0.01220240926 0 -2.73835461e-05)
(-0.0121040064 0 -2.885934936e-05)
(-0.01154449656 0 -4.18231675e-05)
(-0.01145388179 0 -3.972891161e-05)
(-0.01147757791 0 -4.326342114e-05)
(-0.01132944672 0 -4.575002252e-05)
(-0.01042486571 0 -6.724288662e-05)