/*--------------------------------*- C++ -*----------------------------------*\
| =========                 |                                                 |
| \\      /  F ield         | OpenFOAM: The Open Source CFD Toolbox           |
|  \\    /   O peration     | Version:  2206                                  |
|   \\  /    A nd           | Website:  www.openfoam.com                      |
|    \\/     M anipulation  |                                                 |
\*---------------------------------------------------------------------------*/
FoamFile
{
    version     2.0;
    format      ascii;
    arch        "LSB;label=32;scalar=64";
    class       volSymmTensorField;
    location    "0";
    object      UPrime2Mean;
}
// * * * * * * * * * * * * * * * * * * * * * * * * * * * * * * * * * * * * * //

dimensions      [0 2 -2 0 0 0 0];

internalField   nonuniform List<symmTensor> 
31329
(
(3.053179013e-07 0 3.061277395e-07 0 0 3.069565639e-07)
(5.35016876e-07 0 2.898739657e-07 0 0 1.57324896e-07)
(6.450583151e-08 0 2.319298921e-08 0 0 8.871258078e-09)
(1.188749415e-08 0 4.463988544e-10 0 0 5.570388077e-10)
(3.037549649e-08 0 -9.293362034e-10 0 0 9.283177914e-11)
(6.942297348e-08 0 -2.119119418e-09 0 0 6.828269749e-11)
(1.302079685e-07 0 -2.961927997e-09 0 0 7.841590057e-11)
(2.126513034e-07 0 -3.560094641e-09 0 0 8.924365742e-11)
(3.185496569e-07 0 -4.321781418e-09 0 0 1.379363864e-10)
(4.645851315e-07 0 -5.388295042e-09 0 0 2.132442988e-10)
(6.757078928e-07 0 -6.398534203e-09 0 0 2.751954812e-10)
(9.618461009e-07 0 -6.871607095e-09 0 0 3.124692443e-10)
(1.307688547e-06 0 -6.081658012e-09 0 0 3.204495176e-10)
(1.66561781e-06 0 -4.67546848e-09 0 0 3.063429888e-10)
(2.4643248e-06 0 -7.123709241e-09 0 0 1.330988891e-09)
(2.860013997e-06 0 -2.923403484e-09 0 0 1.153906491e-09)
(3.006782598e-06 0 3.943289552e-09 0 0 9.8074507e-10)
(2.807000633e-06 0 8.462219529e-09 0 0 9.236270832e-10)
(2.495936184e-06 0 6.470652891e-09 0 0 8.076106707e-10)
(2.348001227e-06 0 3.288044457e-09 0 0 5.997786815e-10)
(2.353017114e-06 0 6.892657719e-10 0 0 4.288191554e-10)
(2.538162415e-06 0 -1.331148884e-09 0 0 2.725572663e-10)
(6.875317373e-06 0 -3.910721271e-09 0 0 6.525890897e-10)
(5.881453932e-06 0 2.836004983e-09 0 0 3.062617559e-10)
(6.193868838e-06 0 3.107102873e-09 0 0 3.279120951e-10)
(6.354659762e-06 0 1.17786007e-08 0 0 2.66315544e-10)
(3.77128581e-06 0 1.068380977e-08 0 0 1.493438433e-10)
(3.681568496e-06 0 1.066369552e-08 0 0 1.477113504e-10)
(2.61283704e-06 0 9.868825275e-09 0 0 1.275996955e-10)
(3.307413852e-06 0 1.381966701e-08 0 0 1.822237065e-10)
(2.779610672e-06 0 1.125075772e-08 0 0 1.472177407e-10)
(1.839883301e-06 0 8.77976695e-09 0 0 1.293919997e-10)
(1.852633088e-06 0 8.94696683e-09 0 0 1.322309907e-10)
(8.036799922e-07 0 3.291617222e-09 0 0 6.291262804e-11)
(9.870849632e-07 0 4.476639168e-09 0 0 8.861819472e-11)
(9.141074238e-07 0 4.079648373e-09 0 0 8.046702668e-11)
(4.466708549e-07 0 9.317659452e-10 0 0 3.588971301e-11)
(5.408580956e-07 0 1.197197124e-09 0 0 4.891482235e-11)
(5.474046365e-07 0 1.216299218e-09 0 0 5.001225531e-11)
(4.514068535e-07 0 9.516007421e-10 0 0 3.855944631e-11)
(4.151271389e-07 0 -7.19663806e-11 0 0 2.339034158e-11)
(4.92665684e-07 0 -1.070909364e-10 0 0 2.93795627e-11)
(4.561169579e-07 0 -9.326321516e-11 0 0 2.654633315e-11)
(3.84683679e-07 0 -6.979544306e-11 0 0 2.10374582e-11)
(4.474881843e-07 0 -9.430669103e-11 0 0 1.483720153e-11)
(5.321247862e-07 0 -1.202446036e-10 0 0 1.842682154e-11)
(5.306320842e-07 0 -1.193640688e-10 0 0 1.835620374e-11)
(4.47377838e-07 0 -9.108919207e-11 0 0 1.477634242e-11)
(4.114318932e-07 0 3.097331097e-10 0 0 1.189888199e-11)
(4.912499877e-07 0 3.888999868e-10 0 0 1.496624338e-11)
(5.338184315e-07 0 4.30029338e-10 0 0 1.657737656e-11)
(4.494562374e-07 0 3.535142855e-10 0 0 1.345377755e-11)
(3.016707955e-07 0 4.753923024e-10 0 0 9.837357252e-12)
(3.600525081e-07 0 6.043074294e-10 0 0 1.263393726e-11)
(3.928453986e-07 0 6.748549801e-10 0 0 1.41602656e-11)
(3.322015756e-07 0 5.531316545e-10 0 0 1.151732137e-11)
(1.959846906e-07 0 3.614989322e-10 0 0 7.285683101e-12)
(2.317540664e-07 0 4.561508853e-10 0 0 9.368201833e-12)
(2.524688982e-07 0 5.09792254e-10 0 0 1.053926463e-11)
(2.156892714e-07 0 4.210832033e-10 0 0 8.63343508e-12)
(1.326491507e-07 0 1.934492337e-10 0 0 5.351867844e-12)
(1.574913212e-07 0 2.425786896e-10 0 0 6.893230548e-12)
(1.717145295e-07 0 2.704943806e-10 0 0 7.760967942e-12)
(1.481545044e-07 0 2.260620013e-10 0 0 6.422292109e-12)
(1.027284788e-07 0 8.505975368e-11 0 0 4.132674026e-12)
(1.231102272e-07 0 1.059913291e-10 0 0 5.332847841e-12)
(1.340825365e-07 0 1.173415378e-10 0 0 5.977472788e-12)
(1.171484164e-07 0 9.968760811e-11 0 0 5.02308288e-12)
(9.150778356e-08 0 2.349043252e-11 0 0 3.40820564e-12)
(1.105823417e-07 0 2.838044939e-11 0 0 4.406753571e-12)
(1.193503416e-07 0 3.064889738e-11 0 0 4.870151038e-12)
(1.064128476e-07 0 2.683104392e-11 0 0 4.196478988e-12)
(9.125729613e-08 0 -1.313885617e-11 0 0 3.081764368e-12)
(1.109613657e-07 0 -1.783009748e-11 0 0 3.993236979e-12)
(1.167519129e-07 0 -1.920061103e-11 0 0 4.267173623e-12)
(1.079372867e-07 0 -1.749201926e-11 0 0 3.844729789e-12)
(1.002596906e-07 0 -6.283065997e-11 0 0 3.151362628e-12)
(1.224557207e-07 0 -8.157322454e-11 0 0 4.092870075e-12)
(1.211574765e-07 0 -8.056370623e-11 0 0 4.044104761e-12)
(1.204700447e-07 0 -8.007905653e-11 0 0 3.984255559e-12)
(1.247131006e-07 0 -1.593041672e-10 0 0 3.613228868e-12)
(1.53113571e-07 0 -2.06196208e-10 0 0 4.70378453e-12)
(1.298841102e-07 0 -1.679092914e-10 0 0 3.797032607e-12)
(1.52440135e-07 0 -2.041113039e-10 0 0 4.629343981e-12)
(1.780274354e-07 0 -3.204159025e-10 0 0 4.370081452e-12)
(2.199743099e-07 0 -4.150694058e-10 0 0 5.702068054e-12)
(1.155353325e-07 0 -1.733156697e-10 0 0 2.228002155e-12)
(2.213224962e-07 0 -4.143054293e-10 0 0 5.672943435e-12)
(2.692569579e-07 0 -4.699675697e-10 0 0 5.100224862e-12)
(3.343314789e-07 0 -6.09067402e-10 0 0 6.668261684e-12)
(1.770765481e-07 0 -2.573620832e-10 0 0 2.620772401e-12)
(3.389316364e-07 0 -6.12798847e-10 0 0 6.706147842e-12)
(2.829010743e-07 0 -4.754163182e-10 0 0 5.145422264e-12)
(4.722046849e-07 0 -5.070031077e-10 0 0 7.691806774e-12)
(4.090653542e-07 0 -4.229799205e-10 0 0 6.310150959e-12)
(4.811258518e-07 0 -5.128166083e-10 0 0 7.820843481e-12)
(3.969637683e-07 0 -3.922793412e-10 0 0 6.019306215e-12)
(5.480803745e-07 0 1.944919859e-10 0 0 1.14311488e-11)
(5.586846768e-07 0 2.00072044e-10 0 0 1.159619373e-11)
(5.601713261e-07 0 2.039999825e-10 0 0 1.175664258e-11)
(4.555101005e-07 0 1.639342315e-10 0 0 9.091714606e-12)
(4.683353036e-07 0 7.135843758e-10 0 0 2.697494257e-11)
(5.046458088e-07 0 8.040783201e-10 0 0 2.994680213e-11)
(4.810075257e-07 0 7.382281269e-10 0 0 2.804594808e-11)
(3.97410316e-07 0 5.519183007e-10 0 0 2.1696382e-11)
(5.124179629e-07 0 -1.409019428e-09 0 0 5.085914098e-11)
(5.633086672e-07 0 -1.634136933e-09 0 0 5.910938404e-11)
(5.378603774e-07 0 -1.490355287e-09 0 0 5.341900119e-11)
(4.733304016e-07 0 -1.185633278e-09 0 0 4.121667766e-11)
(1.201703363e-06 0 -3.526239283e-09 0 0 3.000950722e-11)
(1.39965709e-06 0 -4.215650557e-09 0 0 3.567733607e-11)
(1.274933649e-06 0 -3.735904074e-09 0 0 3.18181325e-11)
(1.054524297e-06 0 -2.859746108e-09 0 0 2.461117777e-11)
(1.497601728e-06 0 1.34574188e-09 0 0 1.20448817e-11)
(1.761468155e-06 0 1.662379265e-09 0 0 1.447943799e-11)
(1.58571096e-06 0 1.467493403e-09 0 0 1.290313674e-11)
(1.27799882e-06 0 1.143273077e-09 0 0 1.008518864e-11)
(9.819579033e-07 0 1.455254612e-09 0 0 2.967972579e-11)
(1.127885141e-06 0 1.767995264e-09 0 0 3.625988267e-11)
(1.033925052e-06 0 1.566453096e-09 0 0 3.22138011e-11)
(8.590970175e-07 0 1.205361016e-09 0 0 2.502753302e-11)
(1.039096286e-06 0 -1.490228727e-09 0 0 2.783081677e-11)
(1.21457217e-06 0 -1.836960968e-09 0 0 3.416924647e-11)
(1.120859909e-06 0 -1.649459218e-09 0 0 3.050713337e-11)
(9.514586621e-07 0 -1.315834793e-09 0 0 2.379069863e-11)
(1.756358742e-06 0 -4.358834497e-09 0 0 4.230090376e-11)
(2.079843933e-06 0 -5.352856573e-09 0 0 5.214361758e-11)
(1.929660089e-06 0 -4.847726923e-09 0 0 4.706412132e-11)
(1.653672875e-06 0 -3.893279685e-09 0 0 3.739484028e-11)
(2.895210669e-06 0 -4.654951593e-09 0 0 3.734044961e-11)
(3.477492837e-06 0 -5.759044177e-09 0 0 4.638443202e-11)
(3.495604228e-06 0 -5.780620238e-09 0 0 4.657954187e-11)
(2.951746318e-06 0 -4.651321304e-09 0 0 3.747369688e-11)
(3.308988781e-06 0 6.519037737e-10 0 0 3.682643434e-11)
(4.001047129e-06 0 8.730715323e-10 0 0 4.641969207e-11)
(4.363912255e-06 0 9.796380248e-10 0 0 5.139692892e-11)
(3.604200698e-06 0 8.002575077e-10 0 0 4.098685557e-11)
(2.672266346e-06 0 5.043800661e-09 0 0 8.604485115e-11)
(3.242278139e-06 0 6.554931499e-09 0 0 1.116658168e-10)
(3.183135949e-06 0 6.428975869e-09 0 0 1.094690271e-10)
(2.475201836e-06 0 4.734084593e-09 0 0 8.035674806e-11)
(2.12134595e-06 0 4.186922524e-09 0 0 1.871437318e-10)
(2.277095321e-06 0 4.611406795e-09 0 0 2.067509266e-10)
(1.758237282e-06 0 3.255362688e-09 0 0 1.468152444e-10)
(2.015639871e-06 0 -1.297542912e-09 0 0 2.773404556e-10)
(1.991742453e-06 0 -1.294940655e-09 0 0 2.725326847e-10)
(2.189185658e-06 0 -5.566112247e-09 0 0 3.072537123e-10)
(2.559648362e-06 0 -6.774936442e-09 0 0 3.759700851e-10)
(2.036621199e-06 0 -5.012671955e-09 0 0 2.684896587e-10)
(2.901342705e-06 0 -1.087511932e-08 0 0 4.10056457e-10)
(2.81276172e-06 0 -1.02281087e-08 0 0 3.749208874e-10)
(5.432182071e-06 0 -2.9069895e-08 0 0 8.409486851e-10)
(7.364902112e-06 0 -4.377974665e-08 0 0 1.068642485e-09)
(7.189486463e-06 0 -4.170203828e-08 0 0 1.006859599e-09)
(1.188925362e-05 0 -6.391262689e-08 0 0 1.622693285e-09)
(7.582208055e-06 0 -2.289424822e-08 0 0 7.520199955e-10)
(7.726421079e-06 0 1.646893897e-10 0 0 1.116738299e-09)
(6.629627904e-06 0 1.55402957e-08 0 0 2.389454933e-09)
(5.34348833e-06 0 1.612592978e-09 0 0 4.310797197e-09)
(5.594701886e-06 0 -2.833480427e-08 0 0 4.889453967e-09)
(6.420003629e-06 0 -1.591263465e-08 0 0 3.566144804e-09)
(5.889934716e-06 0 2.934313671e-08 0 0 2.514661791e-09)
(4.1547629e-06 0 5.081119486e-08 0 0 2.19141514e-09)
(2.484571063e-06 0 4.3495866e-08 0 0 1.755624759e-09)
(1.375296537e-06 0 2.925053417e-08 0 0 1.240910405e-09)
(7.338393227e-07 0 1.783096096e-08 0 0 8.146268824e-10)
(3.836806157e-07 0 1.044636721e-08 0 0 5.211554365e-10)
(1.96616214e-07 0 6.054078079e-09 0 0 3.366695067e-10)
(8.027513723e-08 0 1.789916495e-09 0 0 4.406537614e-11)
(3.881566094e-08 0 1.091104082e-09 0 0 3.353278316e-11)
(1.729410542e-08 0 6.343815536e-10 0 0 2.527292158e-11)
(6.874272164e-09 0 3.398743838e-10 0 0 1.817789964e-11)
(2.343118748e-09 0 1.61226663e-10 0 0 1.197463642e-11)
(6.55744965e-10 0 6.532747718e-11 0 0 6.974764902e-12)
(1.465261538e-10 0 2.300362548e-11 0 0 3.741187987e-12)
(2.648835489e-11 0 8.152606108e-12 0 0 2.510556527e-12)
(1.714608005e-12 0 1.714199693e-12 0 0 1.713800816e-12)
(1.577407749e-07 0 2.889934858e-07 0 0 5.303956363e-07)
(4.808362593e-07 0 4.514706192e-07 0 0 4.308266119e-07)
(2.750720617e-07 0 1.389551923e-07 0 0 9.067555927e-08)
(1.988603139e-07 0 3.67610516e-09 0 0 1.34707328e-08)
(3.491506836e-07 0 -4.668437867e-08 0 0 8.292985708e-09)
(6.525946844e-07 0 -7.878513927e-08 0 0 1.012714519e-08)
(1.119459028e-06 0 -9.890546571e-08 0 0 1.053832968e-08)
(1.755418673e-06 0 -1.127146521e-07 0 0 1.182758335e-08)
(2.577025563e-06 0 -1.300145883e-07 0 0 1.707867684e-08)
(3.719632262e-06 0 -1.60462157e-07 0 0 2.57355228e-08)
(5.399292698e-06 0 -1.962405655e-07 0 0 3.362385988e-08)
(7.713743835e-06 0 -2.193417765e-07 0 0 3.846820378e-08)
(1.057284847e-05 0 -2.106318764e-07 0 0 3.997704405e-08)
(1.359795804e-05 0 -1.780308175e-07 0 0 3.852604403e-08)
(1.670487212e-05 0 -1.419582473e-07 0 0 3.934793346e-08)
(1.89787039e-05 0 -6.545804296e-08 0 0 3.11200122e-08)
(1.953784428e-05 0 4.008433757e-08 0 0 2.413764784e-08)
(1.795668786e-05 0 1.008829882e-07 0 0 2.062321911e-08)
(1.569922592e-05 0 7.371054677e-08 0 0 1.658772374e-08)
(1.437145439e-05 0 3.275926731e-08 0 0 1.145128502e-08)
(1.387545334e-05 0 2.689794832e-09 0 0 7.606463218e-09)
(1.430215975e-05 0 -1.695081807e-08 0 0 4.511332872e-09)
(1.821139911e-05 0 -1.67873907e-08 0 0 5.140896085e-09)
(1.767432439e-05 0 1.439338879e-08 0 0 2.774418323e-09)
(1.780529236e-05 0 1.725762473e-08 0 0 2.799302962e-09)
(1.643421515e-05 0 5.30023878e-08 0 0 2.06664516e-09)
(1.272731859e-05 0 5.932790918e-08 0 0 1.445662558e-09)
(1.184081547e-05 0 5.826360908e-08 0 0 1.326945429e-09)
(8.851406278e-06 0 5.570675646e-08 0 0 1.215791176e-09)
(8.577899056e-06 0 6.133859322e-08 0 0 1.398513722e-09)
(8.245729165e-06 0 5.709375294e-08 0 0 1.284700605e-09)
(5.055431914e-06 0 4.105908615e-08 0 0 1.044978439e-09)
(4.953492191e-06 0 4.087329543e-08 0 0 1.051135911e-09)
(2.729265747e-06 0 1.923121104e-08 0 0 5.947739976e-10)
(2.565164338e-06 0 1.982155111e-08 0 0 6.857908287e-10)
(2.519949785e-06 0 1.904059792e-08 0 0 6.5311486e-10)
(1.523287301e-06 0 6.015602497e-09 0 0 3.441123264e-10)
(1.464148198e-06 0 5.533712258e-09 0 0 3.886030273e-10)
(1.450320758e-06 0 5.405603268e-09 0 0 3.907223702e-10)
(1.409271527e-06 0 4.890298569e-09 0 0 3.405857434e-10)
(1.236350031e-06 0 -1.213514579e-10 0 0 2.040814158e-10)
(1.258508848e-06 0 -4.90476568e-10 0 0 2.223575884e-10)
(1.250743087e-06 0 -3.907913479e-10 0 0 2.129731237e-10)
(1.221053766e-06 0 -2.62383068e-10 0 0 1.885704354e-10)
(1.326353158e-06 0 -4.098511362e-10 0 0 1.30638286e-10)
(1.387207038e-06 0 -4.923289812e-10 0 0 1.432760904e-10)
(1.386909762e-06 0 -4.803729438e-10 0 0 1.428097095e-10)
(1.33135412e-06 0 -3.245447909e-10 0 0 1.284120989e-10)
(1.270050834e-06 0 1.497684199e-09 0 0 1.070972989e-10)
(1.322742703e-06 0 1.754327018e-09 0 0 1.197307722e-10)
(1.34654883e-06 0 1.854785817e-09 0 0 1.250778596e-10)
(1.28036883e-06 0 1.729385452e-09 0 0 1.131214253e-10)
(9.720957482e-07 0 2.445994261e-09 0 0 9.027599215e-11)
(9.839811081e-07 0 2.757215671e-09 0 0 1.020166065e-10)
(9.906503259e-07 0 2.894830199e-09 0 0 1.07107597e-10)
(9.486564291e-07 0 2.648947147e-09 0 0 9.68250978e-11)
(6.460476764e-07 0 1.97028881e-09 0 0 6.794887753e-11)
(6.41310411e-07 0 2.120761854e-09 0 0 7.626737756e-11)
(6.385433413e-07 0 2.189156776e-09 0 0 7.981513245e-11)
(6.197412953e-07 0 2.024360522e-09 0 0 7.274562314e-11)
(4.389616915e-07 0 1.103240118e-09 0 0 5.019542265e-11)
(4.386653569e-07 0 1.143962346e-09 0 0 5.633022329e-11)
(4.363179057e-07 0 1.158756604e-09 0 0 5.87520394e-11)
(4.270056865e-07 0 1.08912553e-09 0 0 5.405902904e-11)
(3.386014045e-07 0 4.93270111e-10 0 0 3.881186925e-11)
(3.441535858e-07 0 4.97732881e-10 0 0 4.369531712e-11)
(3.431186219e-07 0 4.952959106e-10 0 0 4.530271622e-11)
(3.380425928e-07 0 4.713203744e-10 0 0 4.221334805e-11)
(3.007181791e-07 0 1.3885532e-10 0 0 3.205983782e-11)
(3.102566305e-07 0 1.273706737e-10 0 0 3.623364295e-11)
(3.089521229e-07 0 1.202915773e-10 0 0 3.709085935e-11)
(3.073014861e-07 0 1.155814962e-10 0 0 3.525764743e-11)
(2.998465742e-07 0 -8.029197747e-11 0 0 2.903815542e-11)
(3.126345588e-07 0 -1.010439761e-10 0 0 3.29783833e-11)
(3.086677475e-07 0 -1.02208569e-10 0 0 3.290524255e-11)
(3.1197309e-07 0 -1.0992044e-10 0 0 3.234607704e-11)
(3.306398263e-07 0 -3.662029921e-10 0 0 2.969742997e-11)
(3.472803187e-07 0 -4.181997673e-10 0 0 3.393208928e-11)
(3.356498357e-07 0 -3.979354913e-10 0 0 3.213357078e-11)
(3.495245364e-07 0 -4.323833387e-10 0 0 3.355362783e-11)
(4.125917491e-07 0 -9.056905156e-10 0 0 3.399779232e-11)
(4.371909234e-07 0 -1.029632779e-09 0 0 3.907003185e-11)
(4.052618884e-07 0 -9.029272503e-10 0 0 3.285006143e-11)
(4.443971639e-07 0 -1.055039225e-09 0 0 3.891088258e-11)
(5.872309024e-07 0 -1.782268178e-09 0 0 4.097323983e-11)
(6.290860581e-07 0 -2.02873603e-09 0 0 4.726534429e-11)
(5.327529707e-07 0 -1.423506594e-09 0 0 2.765771969e-11)
(6.436357008e-07 0 -2.061755683e-09 0 0 4.73256267e-11)
(6.475616269e-07 0 -1.92815137e-09 0 0 4.158430828e-11)
(9.516375764e-07 0 -2.917450844e-09 0 0 5.512644414e-11)
(8.139618223e-07 0 -2.081586499e-09 0 0 3.238502206e-11)
(9.734098852e-07 0 -2.933278445e-09 0 0 5.547030442e-11)
(9.681974643e-07 0 -2.620596949e-09 0 0 4.878136339e-11)
(1.333997017e-06 0 -2.354058537e-09 0 0 6.406549418e-11)
(1.26442958e-06 0 -2.14790921e-09 0 0 5.411685805e-11)
(1.356365971e-06 0 -2.301157138e-09 0 0 6.501273585e-11)
(1.315464575e-06 0 -1.859948848e-09 0 0 5.817288019e-11)
(1.541525265e-06 0 9.290612686e-10 0 0 9.748793085e-11)
(1.527313787e-06 0 9.887890907e-10 0 0 9.259210422e-11)
(1.551033241e-06 0 1.057874247e-09 0 0 1.004146619e-10)
(1.457550682e-06 0 1.09566268e-09 0 0 9.327698715e-11)
(1.351389824e-06 0 2.9978948e-09 0 0 2.274467406e-10)
(1.324803616e-06 0 3.427693997e-09 0 0 2.325660598e-10)
(1.352650972e-06 0 2.970129439e-09 0 0 2.354309843e-10)
(1.312877763e-06 0 1.944573894e-09 0 0 2.137450404e-10)
(1.544461571e-06 0 -7.003244952e-09 0 0 4.180712223e-10)
(1.486620095e-06 0 -7.497127651e-09 0 0 4.492209558e-10)
(1.597803138e-06 0 -7.542047077e-09 0 0 4.307803856e-10)
(1.740809847e-06 0 -7.447046871e-09 0 0 3.685555877e-10)
(3.434946673e-06 0 -1.666720505e-08 0 0 2.572868164e-10)
(3.625718898e-06 0 -1.871257812e-08 0 0 2.729687702e-10)
(3.576517123e-06 0 -1.712930464e-08 0 0 2.611359025e-10)
(3.471960904e-06 0 -1.377181827e-08 0 0 2.244260844e-10)
(4.358972507e-06 0 4.823003071e-09 0 0 1.033410091e-10)
(4.603870153e-06 0 6.344048389e-09 0 0 1.044626207e-10)
(4.437338483e-06 0 5.717733158e-09 0 0 1.046573242e-10)
(4.064485841e-06 0 4.943217166e-09 0 0 1.000418408e-10)
(3.085073605e-06 0 6.755427907e-09 0 0 2.372826684e-10)
(3.05066905e-06 0 7.615354887e-09 0 0 2.645736973e-10)
(3.05419462e-06 0 6.885135661e-09 0 0 2.501847261e-10)
(2.968488453e-06 0 5.28690071e-09 0 0 2.184447089e-10)
(3.242039735e-06 0 -7.739755951e-09 0 0 2.352496848e-10)
(3.291069641e-06 0 -8.755026394e-09 0 0 2.561482233e-10)
(3.326171592e-06 0 -8.620164195e-09 0 0 2.462902645e-10)
(3.380257213e-06 0 -8.558855404e-09 0 0 2.222800308e-10)
(5.396697237e-06 0 -2.247432516e-08 0 0 3.571822398e-10)
(5.632977944e-06 0 -2.493304648e-08 0 0 3.989853191e-10)
(5.642438504e-06 0 -2.396472443e-08 0 0 3.798836255e-10)
(5.686615963e-06 0 -2.188781731e-08 0 0 3.35781812e-10)
(8.934497568e-06 0 -2.32756452e-08 0 0 3.262686476e-10)
(9.56466504e-06 0 -2.593632054e-08 0 0 3.625241209e-10)
(9.612051539e-06 0 -2.588251181e-08 0 0 3.632086856e-10)
(9.269290298e-06 0 -2.233328962e-08 0 0 3.26762785e-10)
(1.045962672e-05 0 4.218372571e-09 0 0 3.483465326e-10)
(1.11342214e-05 0 6.176604011e-09 0 0 3.874647842e-10)
(1.143131182e-05 0 6.811911684e-09 0 0 4.015244796e-10)
(1.072752953e-05 0 6.90822546e-09 0 0 3.75711436e-10)
(8.388444394e-06 0 2.699923749e-08 0 0 7.940368405e-10)
(8.591055612e-06 0 3.175653845e-08 0 0 9.168215746e-10)
(8.508532073e-06 0 3.150495928e-08 0 0 9.129385441e-10)
(7.831028595e-06 0 2.67788574e-08 0 0 8.065458862e-10)
(5.846280247e-06 0 1.965308908e-08 0 0 1.564223978e-09)
(5.8284727e-06 0 2.032571817e-08 0 0 1.647574493e-09)
(5.572309482e-06 0 1.592829404e-08 0 0 1.411928251e-09)
(5.426511023e-06 0 -7.714018842e-09 0 0 2.248749865e-09)
(5.438911328e-06 0 -8.240708213e-09 0 0 2.238891475e-09)
(6.684179625e-06 0 -3.118306518e-08 0 0 2.728538621e-09)
(6.798172356e-06 0 -3.352601029e-08 0 0 2.93130904e-09)
(6.973519518e-06 0 -3.329946847e-08 0 0 2.623252317e-09)
(8.996676456e-06 0 -5.910327253e-08 0 0 3.516521996e-09)
(9.903974371e-06 0 -6.686260867e-08 0 0 3.704888765e-09)
(1.440194996e-05 0 -1.313891132e-07 0 0 6.363601811e-09)
(2.111321372e-05 0 -2.027583364e-07 0 0 8.528568882e-09)
(2.186208796e-05 0 -2.037193876e-07 0 0 8.402828207e-09)
(3.001233227e-05 0 -2.443213419e-07 0 0 1.153551204e-08)
(3.116323122e-05 0 -1.335120023e-07 0 0 8.293927007e-09)
(3.214612381e-05 0 2.90675233e-08 0 0 1.33092802e-08)
(2.816541898e-05 0 1.357631414e-07 0 0 3.033873519e-08)
(2.37303099e-05 0 1.113842976e-08 0 0 5.518958374e-08)
(2.602150442e-05 0 -2.453306132e-07 0 0 6.498851678e-08)
(3.082883664e-05 0 -1.456450919e-07 0 0 5.081860041e-08)
(2.942147229e-05 0 2.807335313e-07 0 0 3.880100831e-08)
(2.180807064e-05 0 5.347080428e-07 0 0 3.664765e-08)
(1.376410334e-05 0 5.054378933e-07 0 0 3.233175077e-08)
(8.03156358e-06 0 3.742727859e-07 0 0 2.53693185e-08)
(4.498577071e-06 0 2.50697854e-07 0 0 1.859497027e-08)
(2.455607194e-06 0 1.610173506e-07 0 0 1.332750272e-08)
(1.306789778e-06 0 1.018316478e-07 0 0 9.660550582e-09)
(6.573924914e-07 0 5.928485457e-08 0 0 6.084273534e-09)
(3.194032111e-07 0 3.63282445e-08 0 0 4.622833955e-09)
(1.433063689e-07 0 2.112206375e-08 0 0 3.434457557e-09)
(5.760600084e-08 0 1.129707635e-08 0 0 2.413417223e-09)
(1.990091014e-08 0 5.341243701e-09 0 0 1.541036503e-09)
(5.539195388e-09 0 2.110148318e-09 0 0 8.485739608e-10)
(1.105059125e-09 0 6.362775451e-10 0 0 3.756962244e-10)
(1.254542915e-10 0 1.261284358e-10 0 0 1.26821396e-10)
(2.492637783e-12 0 8.115973632e-12 0 0 2.643216064e-11)
(1.01509626e-08 0 2.137492734e-08 0 0 4.928943695e-08)
(1.476047736e-07 0 1.29040786e-07 0 0 1.582185088e-07)
(2.849314046e-07 0 6.436916619e-08 0 0 9.939086264e-08)
(5.048357054e-07 0 -8.309505705e-08 0 0 6.747963807e-08)
(9.646630236e-07 0 -2.39627114e-07 0 0 7.500357269e-08)
(1.758502385e-06 0 -3.704487929e-07 0 0 8.461418354e-08)
(2.942575769e-06 0 -4.656489852e-07 0 0 8.934917972e-08)
(4.55884666e-06 0 -5.379728414e-07 0 0 1.033827028e-07)
(6.661622616e-06 0 -6.299204225e-07 0 0 1.488360135e-07)
(9.597325172e-06 0 -7.882245389e-07 0 0 2.227345563e-07)
(1.395603822e-05 0 -9.748751177e-07 0 0 2.913527204e-07)
(2.003137685e-05 0 -1.10204186e-06 0 0 3.34656203e-07)
(2.765221732e-05 0 -1.075744951e-06 0 0 3.498837968e-07)
(3.584598045e-05 0 -9.197955587e-07 0 0 3.399818313e-07)
(4.372498406e-05 0 -7.043819783e-07 0 0 3.140973426e-07)
(4.995425894e-05 0 -3.472025716e-07 0 0 2.479579557e-07)
(5.195990414e-05 0 1.294399598e-07 0 0 1.910441193e-07)
(4.873193342e-05 0 4.087460952e-07 0 0 1.602878632e-07)
(4.358061188e-05 0 3.09741362e-07 0 0 1.278554044e-07)
(4.042917595e-05 0 1.377393521e-07 0 0 8.824233136e-08)
(3.918047203e-05 0 6.250450912e-09 0 0 5.821284016e-08)
(4.021965133e-05 0 -7.944824217e-08 0 0 3.417189215e-08)
(4.56346396e-05 0 -5.617470624e-08 0 0 2.920432251e-08)
(4.486884309e-05 0 5.977256939e-08 0 0 1.66914731e-08)
(4.486394685e-05 0 7.412037582e-08 0 0 1.633779065e-08)
(4.071189483e-05 0 2.020944595e-07 0 0 1.167942e-08)
(3.271216956e-05 0 2.349778491e-07 0 0 8.843277036e-09)
(3.054407184e-05 0 2.341380789e-07 0 0 7.981592427e-09)
(2.27422596e-05 0 2.215385755e-07 0 0 7.372044196e-09)
(2.120786197e-05 0 2.295639031e-07 0 0 7.844732673e-09)
(2.065520612e-05 0 2.19494638e-07 0 0 7.49082425e-09)
(1.25536241e-05 0 1.549377121e-07 0 0 5.953555134e-09)
(1.222780052e-05 0 1.528834896e-07 0 0 5.943527212e-09)
(7.034498663e-06 0 7.759283753e-08 0 0 3.615277519e-09)
(6.325938257e-06 0 7.351618971e-08 0 0 3.85280722e-09)
(6.265193428e-06 0 7.142468377e-08 0 0 3.721108463e-09)
(3.95284158e-06 0 2.506891398e-08 0 0 2.10987608e-09)
(3.664942219e-06 0 2.073267901e-08 0 0 2.206454254e-09)
(3.616589219e-06 0 1.991308203e-08 0 0 2.200860282e-09)
(3.603400449e-06 0 1.866612854e-08 0 0 1.994557388e-09)
(3.160445609e-06 0 -5.091530419e-11 0 0 1.204544186e-09)
(3.146399288e-06 0 -1.866913009e-09 0 0 1.240132489e-09)
(3.158943408e-06 0 -1.393496278e-09 0 0 1.211450735e-09)
(3.152905942e-06 0 -8.24098076e-10 0 0 1.112714763e-09)
(3.380600788e-06 0 -1.326076148e-09 0 0 7.727235383e-10)
(3.470863359e-06 0 -1.597958304e-09 0 0 8.079891515e-10)
(3.471359244e-06 0 -1.534195419e-09 0 0 8.04930914e-10)
(3.39498759e-06 0 -8.500649794e-10 0 0 7.51723101e-10)
(3.246485711e-06 0 5.763273076e-09 0 0 6.356803037e-10)
(3.311317839e-06 0 6.707512988e-09 0 0 6.811388023e-10)
(3.341140107e-06 0 7.047329256e-09 0 0 6.978254742e-10)
(3.228492747e-06 0 6.777224838e-09 0 0 6.535264119e-10)
(2.503042224e-06 0 9.500886957e-09 0 0 5.396315395e-10)
(2.467555491e-06 0 1.041505398e-08 0 0 5.822183576e-10)
(2.455093969e-06 0 1.079905409e-08 0 0 5.98326427e-10)
(2.390852835e-06 0 1.011808996e-08 0 0 5.587996438e-10)
(1.673681245e-06 0 7.813283409e-09 0 0 4.104543078e-10)
(1.615383513e-06 0 8.044395075e-09 0 0 4.374503536e-10)
(1.586954621e-06 0 8.138061109e-09 0 0 4.464387648e-10)
(1.56758902e-06 0 7.717320933e-09 0 0 4.209609669e-10)
(1.14127167e-06 0 4.453293623e-09 0 0 3.04279331e-10)
(1.109988956e-06 0 4.364480323e-09 0 0 3.238620485e-10)
(1.08966855e-06 0 4.3017541e-09 0 0 3.288249116e-10)
(1.085012991e-06 0 4.156840211e-09 0 0 3.131438572e-10)
(8.825659307e-07 0 2.006098991e-09 0 0 2.353258104e-10)
(8.746412228e-07 0 1.897595436e-09 0 0 2.515634745e-10)
(8.620091216e-07 0 1.828516336e-09 0 0 2.538603809e-10)
(8.629036507e-07 0 1.786877075e-09 0 0 2.446421724e-10)
(7.85789296e-07 0 5.71800614e-10 0 0 1.944669602e-10)
(7.916677229e-07 0 4.794163889e-10 0 0 2.090163457e-10)
(7.812955139e-07 0 4.318736013e-10 0 0 2.084831112e-10)
(7.876277463e-07 0 4.212635555e-10 0 0 2.046397773e-10)
(7.85503827e-07 0 -3.338301611e-10 0 0 1.76231269e-10)
(8.005356293e-07 0 -4.156129748e-10 0 0 1.90751538e-10)
(7.868104192e-07 0 -4.15592163e-10 0 0 1.862029605e-10)
(8.023691543e-07 0 -4.702516689e-10 0 0 1.882626988e-10)
(8.692174944e-07 0 -1.504901959e-09 0 0 1.800881126e-10)
(8.930978255e-07 0 -1.670072632e-09 0 0 1.966632511e-10)
(8.670814774e-07 0 -1.585151515e-09 0 0 1.843947839e-10)
(9.029600233e-07 0 -1.763258989e-09 0 0 1.957190902e-10)
(1.087951833e-06 0 -3.678814568e-09 0 0 2.056282724e-10)
(1.128901727e-06 0 -4.061073707e-09 0 0 2.26415897e-10)
(1.073262753e-06 0 -3.683435415e-09 0 0 1.954538665e-10)
(1.152910331e-06 0 -4.221276497e-09 0 0 2.26792003e-10)
(1.546845791e-06 0 -7.137089745e-09 0 0 2.466998681e-10)
(1.624378335e-06 0 -7.886465971e-09 0 0 2.729518189e-10)
(1.492533699e-06 0 -6.45815643e-09 0 0 1.910277565e-10)
(1.668862902e-06 0 -8.077230648e-09 0 0 2.743221108e-10)
(2.310102796e-06 0 -1.018196719e-08 0 0 2.873007335e-10)
(2.444374434e-06 0 -1.115776783e-08 0 0 3.171773196e-10)
(2.270349512e-06 0 -9.317497581e-09 0 0 2.225885977e-10)
(2.506851502e-06 0 -1.121509022e-08 0 0 3.196636881e-10)
(2.561875544e-06 0 -1.035955674e-08 0 0 2.957929053e-10)
(3.398732328e-06 0 -8.777867685e-09 0 0 3.706824067e-10)
(3.309852171e-06 0 -8.36082463e-09 0 0 3.195141727e-10)
(3.45681432e-06 0 -8.432907342e-09 0 0 3.77093066e-10)
(3.434664346e-06 0 -6.741364861e-09 0 0 3.588806043e-10)
(3.901446493e-06 0 3.543588976e-09 0 0 5.742422504e-10)
(3.884693136e-06 0 3.933828571e-09 0 0 5.335350014e-10)
(3.915717755e-06 0 4.197271109e-09 0 0 5.959496702e-10)
(3.758829501e-06 0 4.627039689e-09 0 0 5.999023577e-10)
(3.451224513e-06 0 1.026402849e-08 0 0 1.324834193e-09)
(3.346653705e-06 0 1.228210534e-08 0 0 1.32277715e-09)
(3.442276998e-06 0 9.909431206e-09 0 0 1.37832625e-09)
(3.434186462e-06 0 5.297488854e-09 0 0 1.337119626e-09)
(4.048321195e-06 0 -2.773145172e-08 0 0 2.385205835e-09)
(3.827374463e-06 0 -2.931696121e-08 0 0 2.520909575e-09)
(4.191002379e-06 0 -3.029787332e-08 0 0 2.447094717e-09)
(4.730059338e-06 0 -3.188784646e-08 0 0 2.154571831e-09)
(8.870837634e-06 0 -6.368516112e-08 0 0 1.519327117e-09)
(9.259916334e-06 0 -7.131023956e-08 0 0 1.547833417e-09)
(9.234370758e-06 0 -6.498012207e-08 0 0 1.50984616e-09)
(9.214973061e-06 0 -5.197029886e-08 0 0 1.332916457e-09)
(1.143595167e-05 0 1.441893983e-08 0 0 6.12048184e-10)
(1.192781419e-05 0 2.11943993e-08 0 0 5.651314391e-10)
(1.158729118e-05 0 1.876475776e-08 0 0 6.01692378e-10)
(1.082219238e-05 0 1.665119211e-08 0 0 6.301873085e-10)
(8.440020761e-06 0 2.523791179e-08 0 0 1.318486806e-09)
(8.173347131e-06 0 2.859014838e-08 0 0 1.438867502e-09)
(8.285484474e-06 0 2.53757202e-08 0 0 1.384549601e-09)
(8.245248067e-06 0 1.837158097e-08 0 0 1.257802172e-09)
(8.905296847e-06 0 -3.172041881e-08 0 0 1.370931473e-09)
(8.843689554e-06 0 -3.538166413e-08 0 0 1.429938137e-09)
(9.076280983e-06 0 -3.58303016e-08 0 0 1.415111445e-09)
(9.508087733e-06 0 -3.805902273e-08 0 0 1.356025004e-09)
(1.47434259e-05 0 -9.107303087e-08 0 0 2.073680184e-09)
(1.512520334e-05 0 -9.921288332e-08 0 0 2.256513894e-09)
(1.533087483e-05 0 -9.650170786e-08 0 0 2.180870073e-09)
(1.585514672e-05 0 -9.075107744e-08 0 0 1.993687353e-09)
(2.41225658e-05 0 -9.054065204e-08 0 0 1.924767601e-09)
(2.543677358e-05 0 -9.859632471e-08 0 0 2.054947834e-09)
(2.556614745e-05 0 -9.807496854e-08 0 0 2.057254453e-09)
(2.510412861e-05 0 -8.439413416e-08 0 0 1.926800611e-09)
(2.780591161e-05 0 2.115501816e-08 0 0 2.158668504e-09)
(2.902190433e-05 0 3.133435166e-08 0 0 2.293023489e-09)
(2.956062642e-05 0 3.44722117e-08 0 0 2.31524339e-09)
(2.815983228e-05 0 3.621180524e-08 0 0 2.327875273e-09)
(2.176336563e-05 0 1.09955343e-07 0 0 4.841488842e-09)
(2.160760113e-05 0 1.269623052e-07 0 0 5.405782849e-09)
(2.140122194e-05 0 1.261871188e-07 0 0 5.423379965e-09)
(2.013461871e-05 0 1.10071779e-07 0 0 5.155875335e-09)
(1.447755998e-05 0 7.277363214e-08 0 0 9.157092468e-09)
(1.423336087e-05 0 7.366779923e-08 0 0 9.514831882e-09)
(1.408303233e-05 0 5.723951692e-08 0 0 8.741486137e-09)
(1.344802468e-05 0 -3.865632702e-08 0 0 1.292970111e-08)
(1.352304539e-05 0 -4.185421834e-08 0 0 1.295311045e-08)
(1.713011584e-05 0 -1.348084055e-07 0 0 1.610968997e-08)
(1.718579724e-05 0 -1.413611571e-07 0 0 1.661439272e-08)
(1.831105329e-05 0 -1.514600142e-07 0 0 1.61890025e-08)
(2.3647238e-05 0 -2.492364973e-07 0 0 2.06822857e-08)
(2.627945576e-05 0 -2.920387164e-07 0 0 2.282258993e-08)
(3.638307879e-05 0 -5.019339766e-07 0 0 3.495849824e-08)
(5.239284642e-05 0 -7.305551687e-07 0 0 4.65497353e-08)
(5.458951213e-05 0 -7.398090468e-07 0 0 4.671648534e-08)
(7.016900699e-05 0 -7.732392465e-07 0 0 5.925866102e-08)
(7.538634061e-05 0 -4.139615903e-07 0 0 5.074608092e-08)
(7.53554672e-05 0 1.953544596e-07 0 0 8.583352214e-08)
(6.411391733e-05 0 5.176826389e-07 0 0 1.98022663e-07)
(5.432138535e-05 0 -3.20461586e-08 0 0 3.458803269e-07)
(5.998253376e-05 0 -9.761334495e-07 0 0 4.022634343e-07)
(7.056247754e-05 0 -5.482835836e-07 0 0 3.196386569e-07)
(6.771619907e-05 0 1.100084907e-06 0 0 2.501139012e-07)
(5.112968753e-05 0 2.134025516e-06 0 0 2.415346522e-07)
(3.306089255e-05 0 2.082503187e-06 0 0 2.20396798e-07)