/*--------------------------------*- C++ -*----------------------------------*\
| =========                 |                                                 |
| \\      /  F ield         | OpenFOAM: The Open Source CFD Toolbox           |
|  \\    /   O peration     | Version:  2206                                  |
|   \\  /    A nd           | Website:  www.openfoam.com                      |
|    \\/     M anipulation  |                                                 |
\*---------------------------------------------------------------------------*/
FoamFile
{
    version     2.0;
    format      ascii;
    arch        "LSB;label=32;scalar=64";
    class       volVectorField;
    location    "0";
    object      wallShearStress;
}
// * * * * * * * * * * * * * * * * * * * * * * * * * * * * * * * * * * * * * //

dimensions      [1 -1 -2 0 0 0 0];

internalField   uniform (0 0 0);

boundaryField
{
    wall_bottom
    {
        type            calculated;
        value           nonuniform List<vector> 
177
(
(-0.0001272332561 0 -8.716870822e-05)
(-9.157570179e-05 0 -9.903123998e-05)
(-2.731472302e-07 0 -4.43784961e-05)
(4.625012071e-05 0 -1.839185307e-05)
(6.926667857e-05 0 -9.097089557e-06)
(8.699841957e-05 0 -4.943267566e-06)
(0.0001001683739 0 -2.543117281e-06)
(0.0001077833914 0 -9.024287435e-07)
(0.0001106713912 0 -9.755546341e-08)
(0.0001121408436 0 -1.963327168e-07)
(0.0001165868253 0 -6.937889511e-07)
(0.0001249464317 0 -7.312174801e-07)
(0.0001318411673 0 6.033446347e-08)
(0.0001295192019 0 1.115716687e-06)
(0.0001162734269 0 1.663445562e-06)
(9.783556495e-05 0 1.451715261e-06)
(8.359675438e-05 0 6.968448218e-07)
(8.066782062e-05 0 -1.8652259e-07)
(9.283793438e-05 0 -9.107424241e-07)
(0.0001206427869 0 -1.337799768e-06)
(0.0001582765454 0 -1.372404832e-06)
(0.0001968085607 0 -1.219021551e-06)
(0.0002354208488 0 -1.036134375e-06)
(0.0002676428127 0 -6.938696547e-07)
(0.0002676428127 0 -6.938696547e-07)
(0.0002849521506 0 -2.634597016e-07)
(0.0002827897518 0 4.734718565e-08)
(0.0002827897518 0 4.734718565e-08)
(0.0002681435876 0 1.851499636e-07)
(0.0002681435876 0 1.851499636e-07)
(0.0002681435876 0 1.851499636e-07)
(0.000247995842 0 2.462356897e-07)
(0.000247995842 0 2.462356897e-07)
(0.0002215945451 0 2.802079205e-07)
(0.0002215945451 0 2.802079205e-07)
(0.0002215945451 0 2.802079205e-07)
(0.0001915220121 0 2.618296652e-07)
(0.0001915220121 0 2.618296652e-07)
(0.0001915220121 0 2.618296652e-07)
(0.0001915220121 0 2.618296652e-07)
(0.000162234223 0 1.802396476e-07)
(0.000162234223 0 1.802396476e-07)
(0.000162234223 0 1.802396476e-07)
(0.000162234223 0 1.802396476e-07)
(0.0001455459171 0 5.662905084e-08)
(0.0001455459171 0 5.662905084e-08)
(0.0001455459171 0 5.662905084e-08)
(0.0001455459171 0 5.662905084e-08)
(0.0001448790671 0 -6.04605282e-08)
(0.0001448790671 0 -6.04605282e-08)
(0.0001448790671 0 -6.04605282e-08)
(0.0001448790671 0 -6.04605282e-08)
(0.0001564575901 0 -1.472672422e-07)
(0.0001564575901 0 -1.472672422e-07)
(0.0001564575901 0 -1.472672422e-07)
(0.0001564575901 0 -1.472672422e-07)
(0.0001780903841 0 -1.761343233e-07)
(0.0001780903841 0 -1.761343233e-07)
(0.0001780903841 0 -1.761343233e-07)
(0.0001780903841 0 -1.761343233e-07)
(0.0001964584892 0 -5.141814588e-08)
(0.0001964584892 0 -5.141814588e-08)
(0.0001964584892 0 -5.141814588e-08)
(0.0001964584892 0 -5.141814588e-08)
(0.0001901466331 0 1.240547077e-07)
(0.0001901466331 0 1.240547077e-07)
(0.0001901466331 0 1.240547077e-07)
(0.0001901466331 0 1.240547077e-07)
(0.0001681518566 0 1.716717191e-07)
(0.0001681518566 0 1.716717191e-07)
(0.0001681518566 0 1.716717191e-07)
(0.0001681518566 0 1.716717191e-07)
(0.000147350567 0 1.377945646e-07)
(0.000147350567 0 1.377945646e-07)
(0.000147350567 0 1.377945646e-07)
(0.000147350567 0 1.377945646e-07)
(0.000133449251 0 8.330637457e-08)
(0.000133449251 0 8.330637457e-08)
(0.000133449251 0 8.330637457e-08)
(0.000133449251 0 8.330637457e-08)
(0.0001250962668 0 5.764114439e-08)
(0.0001250962668 0 5.764114439e-08)
(0.0001250962668 0 5.764114439e-08)
(0.0001250962668 0 5.764114439e-08)
(0.0001179394088 0 5.019926268e-08)
(0.0001179394088 0 5.019926268e-08)
(0.0001179394088 0 5.019926268e-08)
(0.0001179394088 0 5.019926268e-08)
(0.0001179394088 0 5.019926268e-08)
(0.0001115430087 0 4.042478949e-08)
(0.0001115430087 0 4.042478949e-08)
(0.0001115430087 0 4.042478949e-08)
(0.0001115430087 0 4.042478949e-08)
(0.00010669586 0 3.229384281e-08)
(0.00010669586 0 3.229384281e-08)
(0.00010669586 0 3.229384281e-08)
(0.00010669586 0 3.229384281e-08)
(0.0001022618538 0 5.547496209e-08)
(0.0001022618538 0 5.547496209e-08)
(0.0001022618538 0 5.547496209e-08)
(0.0001022618538 0 5.547496209e-08)
(9.305261641e-05 0 8.677827622e-08)
(9.305261641e-05 0 8.677827622e-08)
(9.305261641e-05 0 8.677827622e-08)
(9.305261641e-05 0 8.677827622e-08)
(8.166345504e-05 0 9.200963033e-08)
(8.166345504e-05 0 9.200963033e-08)
(8.166345504e-05 0 9.200963033e-08)
(8.166345504e-05 0 9.200963033e-08)
(7.084333132e-05 0 1.063382031e-07)
(7.084333132e-05 0 1.063382031e-07)
(7.084333132e-05 0 1.063382031e-07)
(7.084333132e-05 0 1.063382031e-07)
(5.743929142e-05 0 1.162857763e-07)
(5.743929142e-05 0 1.162857763e-07)
(5.743929142e-05 0 1.162857763e-07)
(5.743929142e-05 0 1.162857763e-07)
(4.515730604e-05 0 7.057081259e-08)
(4.515730604e-05 0 7.057081259e-08)
(4.515730604e-05 0 7.057081259e-08)
(4.515730604e-05 0 7.057081259e-08)
(4.233092107e-05 0 -4.646360843e-08)
(4.233092107e-05 0 -4.646360843e-08)
(4.233092107e-05 0 -4.646360843e-08)
(4.233092107e-05 0 -4.646360843e-08)
(5.790329828e-05 0 -2.633198011e-07)
(5.790329828e-05 0 -2.633198011e-07)
(5.790329828e-05 0 -2.633198011e-07)
(5.790329828e-05 0 -2.633198011e-07)
(0.0001111393777 0 -6.341661308e-07)
(0.0001111393777 0 -6.341661308e-07)
(0.0001111393777 0 -6.341661308e-07)
(0.0001111393777 0 -6.341661308e-07)
(0.0002232220662 0 -1.137853901e-06)
(0.0002232220662 0 -1.137853901e-06)
(0.0002232220662 0 -1.137853901e-06)
(0.0002232220662 0 -1.137853901e-06)
(0.0003794262087 0 -1.412068269e-06)
(0.0003794262087 0 -1.412068269e-06)
(0.0003794262087 0 -1.412068269e-06)
(0.0003794262087 0 -1.412068269e-06)
(0.0005137082446 0 -1.133607893e-06)
(0.0005137082446 0 -1.133607893e-06)
(0.0005137082446 0 -1.133607893e-06)
(0.0005909643894 0 -8.397296248e-07)
(0.0005909643894 0 -8.397296248e-07)
(0.0006436059649 0 -8.674227702e-07)
(0.0006436059649 0 -8.674227702e-07)
(0.0006436059649 0 -8.674227702e-07)
(0.0007050584589 0 -1.312385237e-06)
(0.0007050584589 0 -1.312385237e-06)
(0.000792053439 0 -2.167263459e-06)
(0.0009150283147 0 -3.444607303e-06)
(0.0009150283147 0 -3.444607303e-06)
(0.001079037339 0 -5.051017356e-06)
(0.001273586691 0 -6.539138075e-06)
(0.001469353232 0 -6.848271344e-06)
(0.001605521509 0 -5.167976606e-06)
(0.001659219411 0 1.714548197e-08)
(0.001559643731 0 8.219706348e-06)
(0.001325014257 0 1.718652643e-05)
(0.001009236135 0 2.324861011e-05)
(0.0006948090328 0 2.407418385e-05)
(0.0004416181059 0 2.061082846e-05)
(0.0002659937928 0 1.549899254e-05)
(0.0001551543716 0 1.074034841e-05)
(8.922106959e-05 0 7.019056323e-06)
(5.157995139e-05 0 4.391721443e-06)
(3.055810192e-05 0 2.673241274e-06)
(1.885970017e-05 0 1.60759853e-06)
(1.228212083e-05 0 9.561662941e-07)
(8.508816767e-06 0 5.713826218e-07)
(6.235916487e-06 0 3.838185741e-07)
(4.578134076e-06 0 4.550926776e-07)
(2.988389391e-06 0 6.70889545e-07)
(1.465116605e-06 0 8.004034953e-07)
(1.433365864e-07 0 6.662661144e-07)
)
;
    }
    wall_top
    {
        type            calculated;
        value           nonuniform List<vector> 
177
(
(-2.553244236e-07 0 -1.628734386e-06)
(-3.982446741e-06 0 -2.60778907e-06)
(-9.545980466e-06 0 -2.921172552e-06)
(-1.639722198e-05 0 -2.716195814e-06)
(-2.391907336e-05 0 -2.494321706e-06)
(-3.238821616e-05 0 -2.497152736e-06)
(-4.215019721e-05 0 -2.497499072e-06)
(-5.327679969e-05 0 -2.480045323e-06)
(-6.599084314e-05 0 -2.508333883e-06)
(-8.137983381e-05 0 -2.809979734e-06)
(-0.0001020640884 0 -3.508145193e-06)
(-0.0001321938858 0 -4.620597526e-06)
(-0.0001781974448 0 -6.247290427e-06)
(-0.0002488566074 0 -8.293999658e-06)
(-0.0003552030201 0 -1.058332844e-05)
(-0.0005067409512 0 -1.253742856e-05)
(-0.0007053921698 0 -1.327028187e-05)
(-0.0009327324214 0 -1.184420676e-05)
(-0.001147619511 0 -8.427672235e-06)
(-0.00130484817 0 -4.183077482e-06)
(-0.001374671421 0 -5.564420272e-07)
(-0.001360081253 0 1.687697301e-06)
(-0.001282197878 0 2.778852297e-06)
(-0.001164537884 0 2.952483586e-06)
(-0.001164537884 0 2.952483586e-06)
(-0.001028554393 0 2.682207895e-06)
(-0.0008886998506 0 2.326633266e-06)
(-0.0008886998506 0 2.326633266e-06)
(-0.000747766568 0 2.096230322e-06)
(-0.000747766568 0 2.096230322e-06)
(-0.000747766568 0 2.096230322e-06)
(-0.0005936797666 0 1.964590382e-06)
(-0.0005936797666 0 1.964590382e-06)
(-0.0004320989154 0 1.616191684e-06)
(-0.0004320989154 0 1.616191684e-06)
(-0.0004320989154 0 1.616191684e-06)
(-0.0002955025536 0 1.135037396e-06)
(-0.0002955025536 0 1.135037396e-06)
(-0.0002955025536 0 1.135037396e-06)
(-0.0002955025536 0 1.135037396e-06)
(-0.000191530798 0 6.965433373e-07)
(-0.000191530798 0 6.965433373e-07)
(-0.000191530798 0 6.965433373e-07)
(-0.000191530798 0 6.965433373e-07)
(-0.000125115255 0 3.441746327e-07)
(-0.000125115255 0 3.441746327e-07)
(-0.000125115255 0 3.441746327e-07)
(-0.000125115255 0 3.441746327e-07)
(-9.731162285e-05 0 1.217551312e-07)
(-9.731162285e-05 0 1.217551312e-07)
(-9.731162285e-05 0 1.217551312e-07)
(-9.731162285e-05 0 1.217551312e-07)
(-9.055643048e-05 0 1.767444042e-08)
(-9.055643048e-05 0 1.767444042e-08)
(-9.055643048e-05 0 1.767444042e-08)
(-9.055643048e-05 0 1.767444042e-08)
(-8.963609643e-05 0 -5.324649374e-09)
(-8.963609643e-05 0 -5.324649374e-09)
(-8.963609643e-05 0 -5.324649374e-09)
(-8.963609643e-05 0 -5.324649374e-09)
(-8.899087248e-05 0 -7.015996257e-09)
(-8.899087248e-05 0 -7.015996257e-09)
(-8.899087248e-05 0 -7.015996257e-09)
(-8.899087248e-05 0 -7.015996257e-09)
(-8.896627354e-05 0 -5.131886812e-09)
(-8.896627354e-05 0 -5.131886812e-09)
(-8.896627354e-05 0 -5.131886812e-09)
(-8.896627354e-05 0 -5.131886812e-09)
(-8.853554625e-05 0 1.888550249e-09)
(-8.853554625e-05 0 1.888550249e-09)
(-8.853554625e-05 0 1.888550249e-09)
(-8.853554625e-05 0 1.888550249e-09)
(-8.658646881e-05 0 1.720172946e-08)
(-8.658646881e-05 0 1.720172946e-08)
(-8.658646881e-05 0 1.720172946e-08)
(-8.658646881e-05 0 1.720172946e-08)
(-8.299487092e-05 0 1.920160573e-08)
(-8.299487092e-05 0 1.920160573e-08)
(-8.299487092e-05 0 1.920160573e-08)
(-8.299487092e-05 0 1.920160573e-08)
(-8.227291251e-05 0 -2.936518742e-08)
(-8.227291251e-05 0 -2.936518742e-08)
(-8.227291251e-05 0 -2.936518742e-08)
(-8.227291251e-05 0 -2.936518742e-08)
(-9.030801484e-05 0 -1.023828331e-07)
(-9.030801484e-05 0 -1.023828331e-07)
(-9.030801484e-05 0 -1.023828331e-07)
(-9.030801484e-05 0 -1.023828331e-07)
(-9.030801484e-05 0 -1.023828331e-07)
(-0.000107625944 0 -1.617389184e-07)
(-0.000107625944 0 -1.617389184e-07)
(-0.000107625944 0 -1.617389184e-07)
(-0.000107625944 0 -1.617389184e-07)
(-0.000129351992 0 -1.592515558e-07)
(-0.000129351992 0 -1.592515558e-07)
(-0.000129351992 0 -1.592515558e-07)
(-0.000129351992 0 -1.592515558e-07)
(-0.0001453334376 0 -8.976579801e-08)
(-0.0001453334376 0 -8.976579801e-08)
(-0.0001453334376 0 -8.976579801e-08)
(-0.0001453334376 0 -8.976579801e-08)
(-0.0001495927694 0 3.787967871e-09)
(-0.0001495927694 0 3.787967871e-09)
(-0.0001495927694 0 3.787967871e-09)
(-0.0001495927694 0 3.787967871e-09)
(-0.0001426992251 0 5.613997396e-08)
(-0.0001426992251 0 5.613997396e-08)
(-0.0001426992251 0 5.613997396e-08)
(-0.0001426992251 0 5.613997396e-08)
(-0.0001352873935 0 2.700826144e-08)
(-0.0001352873935 0 2.700826144e-08)
(-0.0001352873935 0 2.700826144e-08)
(-0.0001352873935 0 2.700826144e-08)
(-0.0001358984531 0 -6.902039665e-08)
(-0.0001358984531 0 -6.902039665e-08)
(-0.0001358984531 0 -6.902039665e-08)
(-0.0001358984531 0 -6.902039665e-08)
(-0.0001519666868 0 -2.111342625e-07)
(-0.0001519666868 0 -2.111342625e-07)
(-0.0001519666868 0 -2.111342625e-07)
(-0.0001519666868 0 -2.111342625e-07)
(-0.000185740365 0 -3.065701438e-07)
(-0.000185740365 0 -3.065701438e-07)
(-0.000185740365 0 -3.065701438e-07)
(-0.000185740365 0 -3.065701438e-07)
(-0.0002246740464 0 -2.295789679e-07)
(-0.0002246740464 0 -2.295789679e-07)
(-0.0002246740464 0 -2.295789679e-07)
(-0.0002246740464 0 -2.295789679e-07)
(-0.0002356843555 0 4.025019097e-08)
(-0.0002356843555 0 4.025019097e-08)
(-0.0002356843555 0 4.025019097e-08)
(-0.0002356843555 0 4.025019097e-08)
(-0.0002101150854 0 2.191956644e-07)
(-0.0002101150854 0 2.191956644e-07)
(-0.0002101150854 0 2.191956644e-07)
(-0.0002101150854 0 2.191956644e-07)
(-0.0001814434926 0 2.317157905e-07)
(-0.0001814434926 0 2.317157905e-07)
(-0.0001814434926 0 2.317157905e-07)
(-0.0001814434926 0 2.317157905e-07)
(-0.0001591344007 0 2.361088828e-07)
(-0.0001591344007 0 2.361088828e-07)
(-0.0001591344007 0 2.361088828e-07)
(-0.0001386003896 0 2.163515092e-07)
(-0.0001386003896 0 2.163515092e-07)
(-0.0001259153799 0 1.502119478e-07)
(-0.0001259153799 0 1.502119478e-07)
(-0.0001259153799 0 1.502119478e-07)
(-0.0001179338639 0 1.245905505e-07)
(-0.0001179338639 0 1.245905505e-07)
(-0.0001108429065 0 1.317978348e-07)
(-0.0001034272142 0 1.621646098e-07)
(-0.0001034272142 0 1.621646098e-07)
(-9.505856122e-05 0 1.048711621e-07)
(-9.3477545e-05 0 -4.878157465e-08)
(-9.342888526e-05 0 3.334709999e-08)
(-8.899242372e-05 0 -5.013374551e-08)
(-9.546459148e-05 0 -9.526157483e-07)
(-0.0001284333871 0 -2.402594259e-06)
(-0.0001793714795 0 -2.718771872e-06)
(-0.0002073180634 0 -5.249897838e-07)
(-0.0001885613486 0 3.427778315e-06)
(-0.0001226197943 0 6.449408793e-06)
(-5.305793984e-05 0 5.821059555e-06)
(-2.082922569e-05 0 7.024136921e-07)
(-4.200093998e-05 0 -6.03267719e-06)
(-9.698203933e-05 0 -1.008634898e-05)
(-0.0001534010019 0 -9.491046291e-06)
(-0.0001883923008 0 -4.826868151e-06)
(-0.0001933424711 0 1.830947536e-06)
(-0.0001739232833 0 8.134866482e-06)
(-0.0001380204764 0 1.337785023e-05)
(-9.438359895e-05 0 1.710171954e-05)
(-5.111202467e-05 0 1.776685598e-05)
(-1.79245292e-05 0 1.353555288e-05)
(-3.398919685e-07 0 5.904582539e-06)
)
;
    }
    frontAndBack
    {
        type            empty;
    }
    wall_left
    {
        type            calculated;
        value           nonuniform List<vector> 
177
(
(-8.165296497e-05 0 -0.0001275878326)
(-8.63909504e-05 0 -0.0001091671947)
(-2.683152557e-05 0 -4.937102164e-05)
(2.35340776e-07 0 -4.528423628e-05)
(9.070895204e-06 0 -7.334535924e-05)
(1.227623744e-05 0 -0.0001124898363)
(1.343465026e-05 0 -0.0001606440711)
(1.420391704e-05 0 -0.0002187080656)
(1.518687273e-05 0 -0.0002891848648)
(1.657437186e-05 0 -0.0003765438697)
(1.833234407e-05 0 -0.0004870305822)
(2.019600619e-05 0 -0.0006276048618)
(2.171219266e-05 0 -0.0008052778677)
(2.203108691e-05 0 -0.001019639705)
(2.142931671e-05 0 -0.001268098958)
(1.87249594e-05 0 -0.00153852773)
(1.533981232e-05 0 -0.001795701302)
(1.375569684e-05 0 -0.002058261215)
(9.976863257e-06 0 -0.00231329962)
(8.911134502e-06 0 -0.002512644976)
(9.675161917e-06 0 -0.002783348792)
(8.564484223e-06 0 -0.003064195539)
(5.2328102e-06 0 -0.003352871166)
(-2.189015561e-06 0 -0.003407471877)
(-2.189015561e-06 0 -0.003407471877)
(-1.024717036e-05 0 -0.0031353811)
(-1.027840277e-05 0 -0.002477811061)
(-1.027840277e-05 0 -0.002477811061)
(-3.660612513e-06 0 -0.002052033119)
(-3.660612513e-06 0 -0.002052033119)
(-3.660612513e-06 0 -0.002052033119)
(1.201659641e-06 0 -0.002042567508)
(1.201659641e-06 0 -0.002042567508)
(2.220886751e-06 0 -0.002212839964)
(2.220886751e-06 0 -0.002212839964)
(2.220886751e-06 0 -0.002212839964)
(1.480185218e-06 0 -0.002394363158)
(1.480185218e-06 0 -0.002394363158)
(1.480185218e-06 0 -0.002394363158)
(1.480185218e-06 0 -0.002394363158)
(6.392357464e-07 0 -0.002503789612)
(6.392357464e-07 0 -0.002503789612)
(6.392357464e-07 0 -0.002503789612)
(6.392357464e-07 0 -0.002503789612)
(2.495193485e-07 0 -0.002557178835)
(2.495193485e-07 0 -0.002557178835)
(2.495193485e-07 0 -0.002557178835)
(2.495193485e-07 0 -0.002557178835)
(7.384753222e-08 0 -0.002581274518)
(7.384753222e-08 0 -0.002581274518)
(7.384753222e-08 0 -0.002581274518)
(7.384753222e-08 0 -0.002581274518)
(4.682816681e-09 0 -0.00258978894)
(4.682816681e-09 0 -0.00258978894)
(4.682816681e-09 0 -0.00258978894)
(4.682816681e-09 0 -0.00258978894)
(-2.700788944e-08 0 -0.002591556849)
(-2.700788944e-08 0 -0.002591556849)
(-2.700788944e-08 0 -0.002591556849)
(-2.700788944e-08 0 -0.002591556849)
(-7.151169849e-08 0 -0.002590463017)
(-7.151169849e-08 0 -0.002590463017)
(-7.151169849e-08 0 -0.002590463017)
(-7.151169849e-08 0 -0.002590463017)
(-1.672268824e-07 0 -0.002581773286)
(-1.672268824e-07 0 -0.002581773286)
(-1.672268824e-07 0 -0.002581773286)
(-1.672268824e-07 0 -0.002581773286)
(-2.874442532e-07 0 -0.002558767407)
(-2.874442532e-07 0 -0.002558767407)
(-2.874442532e-07 0 -0.002558767407)
(-2.874442532e-07 0 -0.002558767407)
(-3.891962158e-07 0 -0.002521034469)
(-3.891962158e-07 0 -0.002521034469)
(-3.891962158e-07 0 -0.002521034469)
(-3.891962158e-07 0 -0.002521034469)
(-4.125171631e-07 0 -0.002472925865)
(-4.125171631e-07 0 -0.002472925865)
(-4.125171631e-07 0 -0.002472925865)
(-4.125171631e-07 0 -0.002472925865)
(-3.566976331e-07 0 -0.002429087107)
(-3.566976331e-07 0 -0.002429087107)
(-3.566976331e-07 0 -0.002429087107)
(-3.566976331e-07 0 -0.002429087107)
(-3.250898195e-07 0 -0.002392701832)
(-3.250898195e-07 0 -0.002392701832)
(-3.250898195e-07 0 -0.002392701832)
(-3.250898195e-07 0 -0.002392701832)
(-3.250898195e-07 0 -0.002392701832)
(-3.748980986e-07 0 -0.002354967718)
(-3.748980986e-07 0 -0.002354967718)
(-3.748980986e-07 0 -0.002354967718)
(-3.748980986e-07 0 -0.002354967718)
(-4.877207748e-07 0 -0.002306082026)
(-4.877207748e-07 0 -0.002306082026)
(-4.877207748e-07 0 -0.002306082026)
(-4.877207748e-07 0 -0.002306082026)
(-6.241419264e-07 0 -0.00224181841)
(-6.241419264e-07 0 -0.00224181841)
(-6.241419264e-07 0 -0.00224181841)
(-6.241419264e-07 0 -0.00224181841)
(-7.27191544e-07 0 -0.002160069671)
(-7.27191544e-07 0 -0.002160069671)
(-7.27191544e-07 0 -0.002160069671)
(-7.27191544e-07 0 -0.002160069671)
(-6.573734601e-07 0 -0.002072055481)
(-6.573734601e-07 0 -0.002072055481)
(-6.573734601e-07 0 -0.002072055481)
(-6.573734601e-07 0 -0.002072055481)
(-3.749626257e-07 0 -0.002009434344)
(-3.749626257e-07 0 -0.002009434344)
(-3.749626257e-07 0 -0.002009434344)
(-3.749626257e-07 0 -0.002009434344)
(-1.27344267e-07 0 -0.001984922)
(-1.27344267e-07 0 -0.001984922)
(-1.27344267e-07 0 -0.001984922)
(-1.27344267e-07 0 -0.001984922)
(-9.553154279e-08 0 -0.001977865788)
(-9.553154279e-08 0 -0.001977865788)
(-9.553154279e-08 0 -0.001977865788)
(-9.553154279e-08 0 -0.001977865788)
(-2.601030716e-07 0 -0.001961638838)
(-2.601030716e-07 0 -0.001961638838)
(-2.601030716e-07 0 -0.001961638838)
(-2.601030716e-07 0 -0.001961638838)
(-6.278224869e-07 0 -0.001913997731)
(-6.278224869e-07 0 -0.001913997731)
(-6.278224869e-07 0 -0.001913997731)
(-6.278224869e-07 0 -0.001913997731)
(-9.741903177e-07 0 -0.001805121265)
(-9.741903177e-07 0 -0.001805121265)
(-9.741903177e-07 0 -0.001805121265)
(-9.741903177e-07 0 -0.001805121265)
(-1.077310987e-06 0 -0.001664829891)
(-1.077310987e-06 0 -0.001664829891)
(-1.077310987e-06 0 -0.001664829891)
(-1.077310987e-06 0 -0.001664829891)
(-8.13246915e-07 0 -0.001554842946)
(-8.13246915e-07 0 -0.001554842946)
(-8.13246915e-07 0 -0.001554842946)
(-8.13246915e-07 0 -0.001554842946)
(-3.878320537e-07 0 -0.001501734205)
(-3.878320537e-07 0 -0.001501734205)
(-3.878320537e-07 0 -0.001501734205)
(-1.989636803e-07 0 -0.001482187771)
(-1.989636803e-07 0 -0.001482187771)
(-2.815899104e-07 0 -0.00146688044)
(-2.815899104e-07 0 -0.00146688044)
(-2.815899104e-07 0 -0.00146688044)
(-5.634832933e-07 0 -0.001445159126)
(-5.634832933e-07 0 -0.001445159126)
(-1.269033869e-06 0 -0.00140311755)
(-2.437495475e-06 0 -0.001324158296)
(-2.437495475e-06 0 -0.001324158296)
(-4.039942063e-06 0 -0.00120080743)
(-5.903582462e-06 0 -0.001029768145)
(-7.393985696e-06 0 -0.0008223329819)
(-7.859076749e-06 0 -0.0006084012274)
(-7.065599571e-06 0 -0.0004227060284)
(-5.50906573e-06 0 -0.0002864135652)
(-3.883030048e-06 0 -0.0001983330876)
(-2.587445766e-06 0 -0.000145723186)
(-1.685309759e-06 0 -0.0001154079865)
(-1.099145702e-06 0 -9.811036107e-05)
(-7.697284941e-07 0 -8.795870364e-05)
(-6.782349676e-07 0 -8.108982273e-05)
(-7.997393653e-07 0 -7.498284789e-05)
(-1.078923729e-06 0 -6.826803967e-05)
(-1.445591845e-06 0 -6.05016898e-05)
(-1.839823465e-06 0 -5.181447424e-05)
(-2.21434065e-06 0 -4.260335446e-05)
(-2.534055934e-06 0 -3.334345418e-05)
(-2.77608607e-06 0 -2.447966724e-05)
(-2.917350908e-06 0 -1.637372084e-05)
(-2.885919153e-06 0 -9.348501058e-06)
(-2.51361074e-06 0 -3.922384053e-06)
(-1.625764794e-06 0 -2.583468945e-07)
)
;
    }
    wall_right
    {
        type            calculated;
        value           nonuniform List<vector> 
177
(
(6.678930737e-07 0 1.416099473e-07)
(7.96466605e-07 0 1.446399164e-06)
(7.610590656e-07 0 3.007468116e-06)
(7.267824788e-07 0 4.931042351e-06)
(7.163741785e-07 0 7.262343353e-06)
(6.761290004e-07 0 1.002274444e-05)
(5.401863598e-07 0 1.300088111e-05)
(2.783770961e-07 0 1.567070048e-05)
(-7.976555793e-08 0 1.726615491e-05)
(-4.330537328e-07 0 1.707306371e-05)
(-6.470202528e-07 0 1.496827393e-05)
(-5.711436308e-07 0 1.208349318e-05)
(-1.309438493e-07 0 1.128442836e-05)
(7.048900621e-07 0 1.728143442e-05)
(1.913448817e-06 0 3.668175984e-05)
(3.481828587e-06 0 7.834799679e-05)
(5.317239024e-06 0 0.0001533426571)
(7.116431309e-06 0 0.0002723118021)
(8.366883515e-06 0 0.0004390537515)
(8.595976661e-06 0 0.000643950654)
(7.729130034e-06 0 0.0008636442466)
(6.1952829e-06 0 0.001071832448)
(4.568328942e-06 0 0.001250904106)
(3.286240597e-06 0 0.001397331188)
(3.286240597e-06 0 0.001397331188)
(2.385562901e-06 0 0.001519400548)
(1.731960809e-06 0 0.001623711041)
(1.731960809e-06 0 0.001623711041)
(1.23459548e-06 0 0.001710895429)
(1.23459548e-06 0 0.001710895429)
(1.23459548e-06 0 0.001710895429)
(7.954331671e-07 0 0.001780467815)
(7.954331671e-07 0 0.001780467815)
(3.751691673e-07 0 0.001824812689)
(3.751691673e-07 0 0.001824812689)
(3.751691673e-07 0 0.001824812689)
(1.200257359e-07 0 0.00184356374)
(1.200257359e-07 0 0.00184356374)
(1.200257359e-07 0 0.00184356374)
(1.200257359e-07 0 0.00184356374)
(4.402822657e-08 0 0.001850564061)
(4.402822657e-08 0 0.001850564061)
(4.402822657e-08 0 0.001850564061)
(4.402822657e-08 0 0.001850564061)
(2.06998174e-08 0 0.0018544306)
(2.06998174e-08 0 0.0018544306)
(2.06998174e-08 0 0.0018544306)
(2.06998174e-08 0 0.0018544306)
(1.102546776e-07 0 0.001859194404)
(1.102546776e-07 0 0.001859194404)
(1.102546776e-07 0 0.001859194404)
(1.102546776e-07 0 0.001859194404)
(4.338586351e-07 0 0.001887420841)
(4.338586351e-07 0 0.001887420841)
(4.338586351e-07 0 0.001887420841)
(4.338586351e-07 0 0.001887420841)
(7.453908577e-07 0 0.001961523507)
(7.453908577e-07 0 0.001961523507)
(7.453908577e-07 0 0.001961523507)
(7.453908577e-07 0 0.001961523507)
(7.350249532e-07 0 0.002056113035)
(7.350249532e-07 0 0.002056113035)
(7.350249532e-07 0 0.002056113035)
(7.350249532e-07 0 0.002056113035)
(5.420764866e-07 0 0.0021298657)
(5.420764866e-07 0 0.0021298657)
(5.420764866e-07 0 0.0021298657)
(5.420764866e-07 0 0.0021298657)
(3.994433823e-07 0 0.002180697366)
(3.994433823e-07 0 0.002180697366)
(3.994433823e-07 0 0.002180697366)
(3.994433823e-07 0 0.002180697366)
(3.736573525e-07 0 0.00222304332)
(3.736573525e-07 0 0.00222304332)
(3.736573525e-07 0 0.00222304332)
(3.736573525e-07 0 0.00222304332)
(4.233039296e-07 0 0.002267951724)
(4.233039296e-07 0 0.002267951724)
(4.233039296e-07 0 0.002267951724)
(4.233039296e-07 0 0.002267951724)
(4.704601684e-07 0 0.002319573743)
(4.704601684e-07 0 0.002319573743)
(4.704601684e-07 0 0.002319573743)
(4.704601684e-07 0 0.002319573743)
(4.703346419e-07 0 0.002373609125)
(4.703346419e-07 0 0.002373609125)
(4.703346419e-07 0 0.002373609125)
(4.703346419e-07 0 0.002373609125)
(4.703346419e-07 0 0.002373609125)
(4.120809227e-07 0 0.002423773477)
(4.120809227e-07 0 0.002423773477)
(4.120809227e-07 0 0.002423773477)
(4.120809227e-07 0 0.002423773477)
(3.068304539e-07 0 0.002463215086)
(3.068304539e-07 0 0.002463215086)
(3.068304539e-07 0 0.002463215086)
(3.068304539e-07 0 0.002463215086)
(2.154755494e-07 0 0.002489294187)
(2.154755494e-07 0 0.002489294187)
(2.154755494e-07 0 0.002489294187)
(2.154755494e-07 0 0.002489294187)
(1.838298765e-07 0 0.002508055527)
(1.838298765e-07 0 0.002508055527)
(1.838298765e-07 0 0.002508055527)
(1.838298765e-07 0 0.002508055527)
(1.818001387e-07 0 0.002525288352)
(1.818001387e-07 0 0.002525288352)
(1.818001387e-07 0 0.002525288352)
(1.818001387e-07 0 0.002525288352)
(1.550022822e-07 0 0.002541272726)
(1.550022822e-07 0 0.002541272726)
(1.550022822e-07 0 0.002541272726)
(1.550022822e-07 0 0.002541272726)
(6.754161668e-08 0 0.002549786524)
(6.754161668e-08 0 0.002549786524)
(6.754161668e-08 0 0.002549786524)
(6.754161668e-08 0 0.002549786524)
(-7.93458119e-08 0 0.002542992124)
(-7.93458119e-08 0 0.002542992124)
(-7.93458119e-08 0 0.002542992124)
(-7.93458119e-08 0 0.002542992124)
(-2.154917497e-07 0 0.002523036994)
(-2.154917497e-07 0 0.002523036994)
(-2.154917497e-07 0 0.002523036994)
(-2.154917497e-07 0 0.002523036994)
(-4.505097367e-07 0 0.00249047537)
(-4.505097367e-07 0 0.00249047537)
(-4.505097367e-07 0 0.00249047537)
(-4.505097367e-07 0 0.00249047537)
(-1.192086804e-06 0 0.002413097571)
(-1.192086804e-06 0 0.002413097571)
(-1.192086804e-06 0 0.002413097571)
(-1.192086804e-06 0 0.002413097571)
(-1.529473335e-06 0 0.002221071073)
(-1.529473335e-06 0 0.002221071073)
(-1.529473335e-06 0 0.002221071073)
(-1.529473335e-06 0 0.002221071073)
(6.629401889e-07 0 0.002109875275)
(6.629401889e-07 0 0.002109875275)
(6.629401889e-07 0 0.002109875275)
(6.629401889e-07 0 0.002109875275)
(4.930078759e-06 0 0.002345111221)
(4.930078759e-06 0 0.002345111221)
(4.930078759e-06 0 0.002345111221)
(5.710481189e-06 0 0.002893459997)
(5.710481189e-06 0 0.002893459997)
(-4.574815239e-07 0 0.003090282709)
(-4.574815239e-07 0 0.003090282709)
(-4.574815239e-07 0 0.003090282709)
(-4.62177352e-06 0 0.002859607813)
(-4.62177352e-06 0 0.002859607813)
(-3.470709628e-06 0 0.002581890095)
(-3.230013489e-06 0 0.002478527848)
(-3.230013489e-06 0 0.002478527848)
(-4.949737521e-06 0 0.002289057776)
(-3.721713888e-06 0 0.002117761374)
(-4.113705177e-06 0 0.002019220847)
(-5.877603589e-06 0 0.00186806332)
(-6.703835624e-06 0 0.001722499885)
(-9.163164634e-06 0 0.001559915772)
(-1.157135302e-05 0 0.001374085876)
(-1.313397034e-05 0 0.001185196679)
(-1.374744107e-05 0 0.001009546362)
(-1.280516941e-05 0 0.0008608260435)
(-1.108636582e-05 0 0.0007477971363)
(-9.551347375e-06 0 0.000664345951)
(-9.098558894e-06 0 0.0005990264281)
(-1.024190671e-05 0 0.0005394473921)
(-1.298673238e-05 0 0.0004763093628)
(-1.677004557e-05 0 0.0004055367152)
(-2.068733219e-05 0 0.0003283061073)
(-2.377123714e-05 0 0.0002489778629)
(-2.524604375e-05 0 0.0001733172394)
(-2.454428549e-05 0 0.000106675084)
(-2.109347812e-05 0 5.346545298e-05)
(-1.44338625e-05 0 1.774276868e-05)
(-5.969475261e-06 0 1.982998341e-07)
)
;
    }
}


// ************************************************************************* //
