/*--------------------------------*- C++ -*----------------------------------*\
| =========                 |                                                 |
| \\      /  F ield         | OpenFOAM: The Open Source CFD Toolbox           |
|  \\    /   O peration     | Version:  2206                                  |
|   \\  /    A nd           | Website:  www.openfoam.com                      |
|    \\/     M anipulation  |                                                 |
\*---------------------------------------------------------------------------*/
FoamFile
{
    version     2.0;
    format      ascii;
    arch        "LSB;label=32;scalar=64";
    class       volScalarField;
    location    "0";
    object      wallHeatFlux;
}
// * * * * * * * * * * * * * * * * * * * * * * * * * * * * * * * * * * * * * //

dimensions      [1 0 -3 0 0 0 0];

internalField   uniform 0;

boundaryField
{
    wall_bottom
    {
        type            calculated;
        value           nonuniform List<scalar> 
177
(
-2.434807567
-7.6874206
-15.64887033
-35.59509339
-30.86997813
-5.629062711
7.167935036
15.92568913
22.14766707
26.97048495
30.94391177
34.79653017
39.53000148
47.42775042
56.74382905
65.73015112
73.82367814
79.24190417
79.9945979
79.08538773
77.44663634
74.48641502
72.01547418
69.27738684
69.27738684
64.99285807
58.3547892
58.3547892
51.09303124
51.09303124
51.09303124
45.83111363
45.83111363
40.85892457
40.85892457
40.85892457
35.45079168
35.45079168
35.45079168
35.45079168
29.15640749
29.15640749
29.15640749
29.15640749
23.64579297
23.64579297
23.64579297
23.64579297
20.35735472
20.35735472
20.35735472
20.35735472
18.10154678
18.10154678
18.10154678
18.10154678
16.14278327
16.14278327
16.14278327
16.14278327
15.92075668
15.92075668
15.92075668
15.92075668
16.69188542
16.69188542
16.69188542
16.69188542
16.56294799
16.56294799
16.56294799
16.56294799
15.3472673
15.3472673
15.3472673
15.3472673
14.06443939
14.06443939
14.06443939
14.06443939
12.85698063
12.85698063
12.85698063
12.85698063
11.69930436
11.69930436
11.69930436
11.69930436
11.69930436
10.7070292
10.7070292
10.7070292
10.7070292
9.775941723
9.775941723
9.775941723
9.775941723
8.846048
8.846048
8.846048
8.846048
8.158163785
8.158163785
8.158163785
8.158163785
7.805864451
7.805864451
7.805864451
7.805864451
7.754754967
7.754754967
7.754754967
7.754754967
7.958723832
7.958723832
7.958723832
7.958723832
8.225837535
8.225837535
8.225837535
8.225837535
7.952321721
7.952321721
7.952321721
7.952321721
7.579241384
7.579241384
7.579241384
7.579241384
7.203102977
7.203102977
7.203102977
7.203102977
5.792776395
5.792776395
5.792776395
5.792776395
3.078221924
3.078221924
3.078221924
3.078221924
0.548257361
0.548257361
0.548257361
-0.724937047
-0.724937047
-0.1626912416
-0.1626912416
-0.1626912416
0.2082472515
0.2082472515
-0.4536598408
-1.077115685
-1.077115685
-1.484354343
-2.101057975
-4.93981583
-8.323170251
-11.4385369
-14.6538952
-14.9331543
-12.7936889
-10.11913888
-7.329918763
-4.876433413
-3.37729813
-1.923451128
-0.4097260236
0.7076129897
1.424271777
2.537730518
4.261513016
8.154571107
8.252874838
4.031764755
2.007603075
0.6111967367
)
;
    }
    wall_top
    {
        type            calculated;
        value           nonuniform List<scalar> 
177
(
-2.416896528
-7.833057423
-15.41191605
-30.36409923
-30.88085821
-19.36407492
-15.1802339
-13.35099714
-13.72479889
-11.72457124
-8.318599194
-6.186680692
-3.949572848
-3.725458557
-3.68502935
-3.256593823
-2.548672498
-1.847035856
-1.488876795
-1.014588276
-0.9234010067
-1.200882886
-1.213712671
-1.838626373
-1.838626373
-3.390654842
-5.34708847
-5.34708847
-6.147400839
-6.147400839
-6.147400839
-6.127848642
-6.127848642
-6.944400529
-6.944400529
-6.944400529
-7.811398169
-7.811398169
-7.811398169
-7.811398169
-8.421232082
-8.421232082
-8.421232082
-8.421232082
-8.447906906
-8.447906906
-8.447906906
-8.447906906
-8.407928424
-8.407928424
-8.407928424
-8.407928424
-8.848623033
-8.848623033
-8.848623033
-8.848623033
-9.107318615
-9.107318615
-9.107318615
-9.107318615
-8.26821188
-8.26821188
-8.26821188
-8.26821188
-7.463453366
-7.463453366
-7.463453366
-7.463453366
-7.259164484
-7.259164484
-7.259164484
-7.259164484
-7.805884078
-7.805884078
-7.805884078
-7.805884078
-8.835734005
-8.835734005
-8.835734005
-8.835734005
-9.949849955
-9.949849955
-9.949849955
-9.949849955
-11.05130963
-11.05130963
-11.05130963
-11.05130963
-11.05130963
-11.57441586
-11.57441586
-11.57441586
-11.57441586
-11.34966498
-11.34966498
-11.34966498
-11.34966498
-10.66384526
-10.66384526
-10.66384526
-10.66384526
-10.48360793
-10.48360793
-10.48360793
-10.48360793
-11.93143745
-11.93143745
-11.93143745
-11.93143745
-13.89156695
-13.89156695
-13.89156695
-13.89156695
-16.08015131
-16.08015131
-16.08015131
-16.08015131
-18.51947966
-18.51947966
-18.51947966
-18.51947966
-21.00599506
-21.00599506
-21.00599506
-21.00599506
-20.93774334
-20.93774334
-20.93774334
-20.93774334
-19.65123163
-19.65123163
-19.65123163
-19.65123163
-22.21553571
-22.21553571
-22.21553571
-22.21553571
-27.16231399
-27.16231399
-27.16231399
-27.16231399
-31.80737416
-31.80737416
-31.80737416
-36.61283612
-36.61283612
-41.53106001
-41.53106001
-41.53106001
-47.16666079
-47.16666079
-52.31830691
-56.08863345
-56.08863345
-58.92480997
-61.53672298
-64.7249633
-67.87586659
-71.9591727
-74.2556493
-66.9388394
-52.63493882
-42.57052966
-42.47029597
-50.27542284
-62.25364992
-69.89043667
-69.836244
-65.95339005
-58.70364435
-45.2354795
-26.2228751
6.195190464
16.70667114
2.119084952
-0.3970025071
-0.3150963629
)
;
    }
    frontAndBack
    {
        type            empty;
    }
    wall_left
    {
        type            calculated;
        value           nonuniform List<scalar> 
177
(
59.5290387
55.26176606
51.7728203
49.49653601
48.69452985
49.36751885
51.41026672
54.63884631
58.87910284
64.00085473
69.90795657
76.51548056
83.70163545
91.17874597
99.0128525
105.8757509
111.2893108
118.2693835
120.455918
122.898532
124.7960228
124.1594706
120.2389332
109.8629592
109.8629592
90.80597734
72.55612614
72.55612614
68.05478107
68.05478107
68.05478107
69.82313847
69.82313847
78.70447607
78.70447607
78.70447607
97.61771885
97.61771885
97.61771885
97.61771885
107.6973552
107.6973552
107.6973552
107.6973552
109.2404286
109.2404286
109.2404286
109.2404286
107.8422453
107.8422453
107.8422453
107.8422453
103.2854539
103.2854539
103.2854539
103.2854539
98.26910509
98.26910509
98.26910509
98.26910509
94.23000799
94.23000799
94.23000799
94.23000799
91.25250856
91.25250856
91.25250856
91.25250856
88.45886277
88.45886277
88.45886277
88.45886277
85.0458243
85.0458243
85.0458243
85.0458243
81.46870881
81.46870881
81.46870881
81.46870881
78.78188019
78.78188019
78.78188019
78.78188019
76.89900728
76.89900728
76.89900728
76.89900728
76.89900728
74.94536314
74.94536314
74.94536314
74.94536314
72.43233368
72.43233368
72.43233368
72.43233368
68.90607207
68.90607207
68.90607207
68.90607207
64.67087171
64.67087171
64.67087171
64.67087171
61.49720499
61.49720499
61.49720499
61.49720499
60.45027806
60.45027806
60.45027806
60.45027806
60.46115347
60.46115347
60.46115347
60.46115347
60.38973537
60.38973537
60.38973537
60.38973537
59.61580473
59.61580473
59.61580473
59.61580473
56.70680989
56.70680989
56.70680989
56.70680989
48.53900452
48.53900452
48.53900452
48.53900452
42.23158232
42.23158232
42.23158232
42.23158232
40.14547616
40.14547616
40.14547616
40.14547616
39.99720132
39.99720132
39.99720132
40.27632923
40.27632923
41.20453698
41.20453698
41.20453698
42.83525344
42.83525344
43.16678654
42.8429519
42.8429519
41.84631333
39.88011097
36.5255322
32.15486568
27.32475596
22.64252919
18.4951559
15.06088429
12.39675849
10.47912064
9.234953062
8.581154642
8.452360926
8.7915159
9.623131441
10.96913843
12.85284973
15.32258858
18.43202131
22.21027766
26.60747241
31.4297139
36.31538575
)
;
    }
    wall_right
    {
        type            calculated;
        value           nonuniform List<scalar> 
177
(
-12.06505002
-10.82436602
-9.633980626
-8.617255975
-7.851801075
-7.380377351
-7.228909072
-7.421182183
-7.977110313
-8.892720284
-10.11867872
-11.55395295
-13.07721314
-14.61135394
-16.17044464
-17.83644582
-19.68417182
-21.72704995
-23.91144266
-26.12556053
-28.21239771
-30.01780428
-31.53719879
-32.97257396
-32.97257396
-34.67139719
-37.23118944
-37.23118944
-41.08740988
-41.08740988
-41.08740988
-46.19285044
-46.19285044
-50.73401878
-50.73401878
-50.73401878
-52.6997081
-52.6997081
-52.6997081
-52.6997081
-53.28774831
-53.28774831
-53.28774831
-53.28774831
-53.26007757
-53.26007757
-53.26007757
-53.26007757
-52.67256488
-52.67256488
-52.67256488
-52.67256488
-52.59512326
-52.59512326
-52.59512326
-52.59512326
-54.07372817
-54.07372817
-54.07372817
-54.07372817
-58.17568602
-58.17568602
-58.17568602
-58.17568602
-62.80392298
-62.80392298
-62.80392298
-62.80392298
-65.55898743
-65.55898743
-65.55898743
-65.55898743
-67.00376452
-67.00376452
-67.00376452
-67.00376452
-68.62593451
-68.62593451
-68.62593451
-68.62593451
-70.87143702
-70.87143702
-70.87143702
-70.87143702
-73.80220596
-73.80220596
-73.80220596
-73.80220596
-73.80220596
-77.29467178
-77.29467178
-77.29467178
-77.29467178
-80.73498041
-80.73498041
-80.73498041
-80.73498041
-83.55535519
-83.55535519
-83.55535519
-83.55535519
-86.10700307
-86.10700307
-86.10700307
-86.10700307
-89.3470871
-89.3470871
-89.3470871
-89.3470871
-93.5280716
-93.5280716
-93.5280716
-93.5280716
-98.24107475
-98.24107475
-98.24107475
-98.24107475
-102.3729204
-102.3729204
-102.3729204
-102.3729204
-103.5239048
-103.5239048
-103.5239048
-103.5239048
-102.1069926
-102.1069926
-102.1069926
-102.1069926
-92.98205058
-92.98205058
-92.98205058
-92.98205058
-77.63042628
-77.63042628
-77.63042628
-77.63042628
-75.27554189
-75.27554189
-75.27554189
-75.27554189
-88.0723919
-88.0723919
-88.0723919
-120.3312458
-120.3312458
-135.9012319
-135.9012319
-135.9012319
-139.7164949
-139.7164949
-138.3320461
-138.2872715
-138.2872715
-139.7918537
-138.9893076
-139.9931392
-140.5906945
-139.4735768
-139.1410536
-135.764861
-131.3976332
-126.7871028
-121.8968347
-117.6181553
-114.024201
-110.6395469
-106.8047012
-102.0544676
-96.3168
-89.90848541
-83.4019192
-77.45481126
-72.6459139
-69.31901369
-67.44738224
-66.57962683
)
;
    }
}


// ************************************************************************* //
