/*--------------------------------*- C++ -*----------------------------------*\
| =========                 |                                                 |
| \\      /  F ield         | OpenFOAM: The Open Source CFD Toolbox           |
|  \\    /   O peration     | Version:  2206                                  |
|   \\  /    A nd           | Website:  www.openfoam.com                      |
|    \\/     M anipulation  |                                                 |
\*---------------------------------------------------------------------------*/
FoamFile
{
    version     2.0;
    format      ascii;
    arch        "LSB;label=32;scalar=64";
    class       volVectorField;
    location    "0";
    object      wallShearStressMean;
}
// * * * * * * * * * * * * * * * * * * * * * * * * * * * * * * * * * * * * * //

dimensions      [1 -1 -2 0 0 0 0];

internalField   uniform (0 0 0);

boundaryField
{
    wall_bottom
    {
        type            calculated;
        value           nonuniform List<vector> 
177
(
(-5.931695806e-05 0 -4.145265037e-05)
(-3.6836045e-05 0 -5.103696955e-05)
(2.330104814e-05 0 -3.061793306e-05)
(7.222889247e-05 0 -2.036510815e-05)
(0.0001161621542 0 -1.563265391e-05)
(0.0001589661368 0 -1.194080173e-05)
(0.0001962826782 0 -8.054707685e-06)
(0.000222155527 0 -3.902677251e-06)
(0.0002313218615 0 2.662306847e-07)
(0.0002193076963 0 3.819133122e-06)
(0.000186265017 0 5.992097733e-06)
(0.0001382708237 0 6.387143068e-06)
(8.689936672e-05 0 5.175524546e-06)
(4.52276563e-05 0 3.098160107e-06)
(2.160111467e-05 0 1.139995483e-06)
(1.607108684e-05 0 -1.332191419e-07)
(2.341745267e-05 0 -6.823449434e-07)
(3.609871825e-05 0 -7.473777846e-07)
(5.000126536e-05 0 -7.30971094e-07)
(6.845982799e-05 0 -8.976470131e-07)
(9.514945281e-05 0 -9.64064278e-07)
(0.0001232445985 0 -8.149437897e-07)
(0.0001495275082 0 -6.799253e-07)
(0.0001737248342 0 -5.021694113e-07)
(0.0001737248342 0 -5.021694113e-07)
(0.0001911043862 0 -2.878602757e-07)
(0.0001994242069 0 -1.047230293e-07)
(0.0001994242069 0 -1.047230293e-07)
(0.0002004945228 0 -1.610946435e-08)
(0.0002004945228 0 -1.610946435e-08)
(0.0002004945228 0 -1.610946435e-08)
(0.0001995437439 0 6.516849258e-09)
(0.0001995437439 0 6.516849258e-09)
(0.0001964367396 0 3.071642683e-08)
(0.0001964367396 0 3.071642683e-08)
(0.0001964367396 0 3.071642683e-08)
(0.0001910960656 0 4.068235112e-08)
(0.0001910960656 0 4.068235112e-08)
(0.0001910960656 0 4.068235112e-08)
(0.0001910960656 0 4.068235112e-08)
(0.0001843971471 0 4.34900971e-08)
(0.0001843971471 0 4.34900971e-08)
(0.0001843971471 0 4.34900971e-08)
(0.0001843971471 0 4.34900971e-08)
(0.0001780131352 0 2.906637837e-08)
(0.0001780131352 0 2.906637837e-08)
(0.0001780131352 0 2.906637837e-08)
(0.0001780131352 0 2.906637837e-08)
(0.0001743060581 0 2.070772555e-08)
(0.0001743060581 0 2.070772555e-08)
(0.0001743060581 0 2.070772555e-08)
(0.0001743060581 0 2.070772555e-08)
(0.0001703692081 0 2.817299404e-08)
(0.0001703692081 0 2.817299404e-08)
(0.0001703692081 0 2.817299404e-08)
(0.0001703692081 0 2.817299404e-08)
(0.0001654009951 0 2.96156006e-08)
(0.0001654009951 0 2.96156006e-08)
(0.0001654009951 0 2.96156006e-08)
(0.0001654009951 0 2.96156006e-08)
(0.0001617179086 0 2.063973321e-08)
(0.0001617179086 0 2.063973321e-08)
(0.0001617179086 0 2.063973321e-08)
(0.0001617179086 0 2.063973321e-08)
(0.0001586127932 0 2.219439646e-08)
(0.0001586127932 0 2.219439646e-08)
(0.0001586127932 0 2.219439646e-08)
(0.0001586127932 0 2.219439646e-08)
(0.0001548877212 0 2.504023003e-08)
(0.0001548877212 0 2.504023003e-08)
(0.0001548877212 0 2.504023003e-08)
(0.0001548877212 0 2.504023003e-08)
(0.0001510671551 0 2.577546061e-08)
(0.0001510671551 0 2.577546061e-08)
(0.0001510671551 0 2.577546061e-08)
(0.0001510671551 0 2.577546061e-08)
(0.0001475058835 0 2.491886767e-08)
(0.0001475058835 0 2.491886767e-08)
(0.0001475058835 0 2.491886767e-08)
(0.0001475058835 0 2.491886767e-08)
(0.0001436520543 0 3.357705332e-08)
(0.0001436520543 0 3.357705332e-08)
(0.0001436520543 0 3.357705332e-08)
(0.0001436520543 0 3.357705332e-08)
(0.0001381260328 0 5.058675241e-08)
(0.0001381260328 0 5.058675241e-08)
(0.0001381260328 0 5.058675241e-08)
(0.0001381260328 0 5.058675241e-08)
(0.0001381260328 0 5.058675241e-08)
(0.0001301158287 0 8.05686437e-08)
(0.0001301158287 0 8.05686437e-08)
(0.0001301158287 0 8.05686437e-08)
(0.0001301158287 0 8.05686437e-08)
(0.00011732299 0 1.331770069e-07)
(0.00011732299 0 1.331770069e-07)
(0.00011732299 0 1.331770069e-07)
(0.00011732299 0 1.331770069e-07)
(9.648738512e-05 0 2.109645408e-07)
(9.648738512e-05 0 2.109645408e-07)
(9.648738512e-05 0 2.109645408e-07)
(9.648738512e-05 0 2.109645408e-07)
(6.520990243e-05 0 2.836158704e-07)
(6.520990243e-05 0 2.836158704e-07)
(6.520990243e-05 0 2.836158704e-07)
(6.520990243e-05 0 2.836158704e-07)
(2.74576093e-05 0 2.830887127e-07)
(2.74576093e-05 0 2.830887127e-07)
(2.74576093e-05 0 2.830887127e-07)
(2.74576093e-05 0 2.830887127e-07)
(-2.817055632e-06 0 1.358907876e-07)
(-2.817055632e-06 0 1.358907876e-07)
(-2.817055632e-06 0 1.358907876e-07)
(-2.817055632e-06 0 1.358907876e-07)
(-5.217083939e-06 0 -6.986441173e-08)
(-5.217083939e-06 0 -6.986441173e-08)
(-5.217083939e-06 0 -6.986441173e-08)
(-5.217083939e-06 0 -6.986441173e-08)
(1.281434201e-05 0 -1.35937504e-07)
(1.281434201e-05 0 -1.35937504e-07)
(1.281434201e-05 0 -1.35937504e-07)
(1.281434201e-05 0 -1.35937504e-07)
(2.839103035e-05 0 -9.703670174e-08)
(2.839103035e-05 0 -9.703670174e-08)
(2.839103035e-05 0 -9.703670174e-08)
(2.839103035e-05 0 -9.703670174e-08)
(3.879438395e-05 0 -1.413107824e-07)
(3.879438395e-05 0 -1.413107824e-07)
(3.879438395e-05 0 -1.413107824e-07)
(3.879438395e-05 0 -1.413107824e-07)
(6.78983502e-05 0 -3.450116329e-07)
(6.78983502e-05 0 -3.450116329e-07)
(6.78983502e-05 0 -3.450116329e-07)
(6.78983502e-05 0 -3.450116329e-07)
(0.0001328861083 0 -6.56908301e-07)
(0.0001328861083 0 -6.56908301e-07)
(0.0001328861083 0 -6.56908301e-07)
(0.0001328861083 0 -6.56908301e-07)
(0.0002284868785 0 -9.920771233e-07)
(0.0002284868785 0 -9.920771233e-07)
(0.0002284868785 0 -9.920771233e-07)
(0.0002284868785 0 -9.920771233e-07)
(0.0003429132906 0 -1.339815676e-06)
(0.0003429132906 0 -1.339815676e-06)
(0.0003429132906 0 -1.339815676e-06)
(0.0004724181529 0 -1.765522717e-06)
(0.0004724181529 0 -1.765522717e-06)
(0.0006200404898 0 -2.374887619e-06)
(0.0006200404898 0 -2.374887619e-06)
(0.0006200404898 0 -2.374887619e-06)
(0.0007922279821 0 -3.248541447e-06)
(0.0007922279821 0 -3.248541447e-06)
(0.0009946343348 0 -4.414573004e-06)
(0.001226676907 0 -5.71681005e-06)
(0.001226676907 0 -5.71681005e-06)
(0.001471340475 0 -6.623988612e-06)
(0.001685111908 0 -6.262709717e-06)
(0.001816409658 0 -3.498246648e-06)
(0.001815327213 0 2.499760408e-06)
(0.00163273007 0 1.147045936e-05)
(0.001292155054 0 2.019676352e-05)
(0.0008869273137 0 2.413397044e-05)
(0.0005318358167 0 2.159031238e-05)
(0.0002895889213 0 1.54662777e-05)
(0.0001507493698 0 9.60328823e-06)
(7.915872576e-05 0 5.342169306e-06)
(4.58118864e-05 0 2.663253904e-06)
(3.184127378e-05 0 1.145498411e-06)
(2.669548754e-05 0 4.092067378e-07)
(2.473493218e-05 0 2.018075641e-07)
(2.317514038e-05 0 3.264358763e-07)
(2.093433798e-05 0 6.127084477e-07)
(1.784465763e-05 0 9.520800114e-07)
(1.412799388e-05 0 1.279934992e-06)
(1.002792406e-05 0 1.632045594e-06)
(5.877042944e-06 0 1.840249682e-06)
(2.402172398e-06 0 1.63031168e-06)
(1.333561736e-07 0 9.598682171e-07)
)
;
    }
    wall_top
    {
        type            calculated;
        value           nonuniform List<vector> 
177
(
(-3.478206311e-07 0 -2.00049392e-06)
(-4.618602799e-06 0 -2.913491214e-06)
(-1.019622255e-05 0 -2.847096936e-06)
(-1.597848925e-05 0 -2.110145948e-06)
(-2.077099544e-05 0 -1.312366371e-06)
(-2.433906215e-05 0 -7.579375734e-07)
(-2.656764687e-05 0 -2.570781485e-07)
(-2.713630466e-05 0 1.80318855e-07)
(-2.597005548e-05 0 4.73347159e-07)
(-2.397770078e-05 0 3.863777533e-07)
(-2.376679445e-05 0 -2.092638151e-07)
(-2.985426369e-05 0 -1.379297727e-06)
(-5.003656603e-05 0 -3.365379097e-06)
(-9.728610107e-05 0 -6.361288684e-06)
(-0.0001921054549 0 -1.058366518e-05)
(-0.0003630001364 0 -1.571938485e-05)
(-0.0006369801564 0 -1.996544107e-05)
(-0.0009999768885 0 -2.010101066e-05)
(-0.001370213984 0 -1.4982375e-05)
(-0.001639602983 0 -7.145001246e-06)
(-0.001743445404 0 -2.060288363e-07)
(-0.001681157701 0 4.001530892e-06)
(-0.001516063401 0 5.493280832e-06)
(-0.001289831576 0 5.325764998e-06)
(-0.001289831576 0 5.325764998e-06)
(-0.001057919496 0 4.297790837e-06)
(-0.0008515163467 0 3.171608728e-06)
(-0.0008515163467 0 3.171608728e-06)
(-0.0006784840146 0 2.260823611e-06)
(-0.0006784840146 0 2.260823611e-06)
(-0.0006784840146 0 2.260823611e-06)
(-0.0005375145204 0 1.577841555e-06)
(-0.0005375145204 0 1.577841555e-06)
(-0.0004242087361 0 1.098466962e-06)
(-0.0004242087361 0 1.098466962e-06)
(-0.0004242087361 0 1.098466962e-06)
(-0.0003319236002 0 7.825646928e-07)
(-0.0003319236002 0 7.825646928e-07)
(-0.0003319236002 0 7.825646928e-07)
(-0.0003319236002 0 7.825646928e-07)
(-0.0002545315081 0 5.668903943e-07)
(-0.0002545315081 0 5.668903943e-07)
(-0.0002545315081 0 5.668903943e-07)
(-0.0002545315081 0 5.668903943e-07)
(-0.0001903169417 0 4.092256391e-07)
(-0.0001903169417 0 4.092256391e-07)
(-0.0001903169417 0 4.092256391e-07)
(-0.0001903169417 0 4.092256391e-07)
(-0.0001432138338 0 2.914108295e-07)
(-0.0001432138338 0 2.914108295e-07)
(-0.0001432138338 0 2.914108295e-07)
(-0.0001432138338 0 2.914108295e-07)
(-0.0001121834122 0 2.009999031e-07)
(-0.0001121834122 0 2.009999031e-07)
(-0.0001121834122 0 2.009999031e-07)
(-0.0001121834122 0 2.009999031e-07)
(-9.070104565e-05 0 1.351857282e-07)
(-9.070104565e-05 0 1.351857282e-07)
(-9.070104565e-05 0 1.351857282e-07)
(-9.070104565e-05 0 1.351857282e-07)
(-7.697244747e-05 0 7.399609466e-08)
(-7.697244747e-05 0 7.399609466e-08)
(-7.697244747e-05 0 7.399609466e-08)
(-7.697244747e-05 0 7.399609466e-08)
(-7.079207096e-05 0 2.237989974e-08)
(-7.079207096e-05 0 2.237989974e-08)
(-7.079207096e-05 0 2.237989974e-08)
(-7.079207096e-05 0 2.237989974e-08)
(-7.00803177e-05 0 -1.699006264e-08)
(-7.00803177e-05 0 -1.699006264e-08)
(-7.00803177e-05 0 -1.699006264e-08)
(-7.00803177e-05 0 -1.699006264e-08)
(-7.384580659e-05 0 -4.803024383e-08)
(-7.384580659e-05 0 -4.803024383e-08)
(-7.384580659e-05 0 -4.803024383e-08)
(-7.384580659e-05 0 -4.803024383e-08)
(-8.074571288e-05 0 -6.589828047e-08)
(-8.074571288e-05 0 -6.589828047e-08)
(-8.074571288e-05 0 -6.589828047e-08)
(-8.074571288e-05 0 -6.589828047e-08)
(-8.910334928e-05 0 -7.418140945e-08)
(-8.910334928e-05 0 -7.418140945e-08)
(-8.910334928e-05 0 -7.418140945e-08)
(-8.910334928e-05 0 -7.418140945e-08)
(-9.80747881e-05 0 -7.109753892e-08)
(-9.80747881e-05 0 -7.109753892e-08)
(-9.80747881e-05 0 -7.109753892e-08)
(-9.80747881e-05 0 -7.109753892e-08)
(-9.80747881e-05 0 -7.109753892e-08)
(-0.0001058442103 0 -6.170679816e-08)
(-0.0001058442103 0 -6.170679816e-08)
(-0.0001058442103 0 -6.170679816e-08)
(-0.0001058442103 0 -6.170679816e-08)
(-0.0001128835234 0 -5.505700568e-08)
(-0.0001128835234 0 -5.505700568e-08)
(-0.0001128835234 0 -5.505700568e-08)
(-0.0001128835234 0 -5.505700568e-08)
(-0.0001187411079 0 -4.944986313e-08)
(-0.0001187411079 0 -4.944986313e-08)
(-0.0001187411079 0 -4.944986313e-08)
(-0.0001187411079 0 -4.944986313e-08)
(-0.0001248246164 0 -5.955966018e-08)
(-0.0001248246164 0 -5.955966018e-08)
(-0.0001248246164 0 -5.955966018e-08)
(-0.0001248246164 0 -5.955966018e-08)
(-0.0001320361551 0 -6.052733815e-08)
(-0.0001320361551 0 -6.052733815e-08)
(-0.0001320361551 0 -6.052733815e-08)
(-0.0001320361551 0 -6.052733815e-08)
(-0.0001383998662 0 -5.210970624e-08)
(-0.0001383998662 0 -5.210970624e-08)
(-0.0001383998662 0 -5.210970624e-08)
(-0.0001383998662 0 -5.210970624e-08)
(-0.0001435019094 0 -4.559389358e-08)
(-0.0001435019094 0 -4.559389358e-08)
(-0.0001435019094 0 -4.559389358e-08)
(-0.0001435019094 0 -4.559389358e-08)
(-0.0001483984391 0 -4.892654738e-08)
(-0.0001483984391 0 -4.892654738e-08)
(-0.0001483984391 0 -4.892654738e-08)
(-0.0001483984391 0 -4.892654738e-08)
(-0.0001536584155 0 -4.441913071e-08)
(-0.0001536584155 0 -4.441913071e-08)
(-0.0001536584155 0 -4.441913071e-08)
(-0.0001536584155 0 -4.441913071e-08)
(-0.000157470168 0 -3.705150064e-08)
(-0.000157470168 0 -3.705150064e-08)
(-0.000157470168 0 -3.705150064e-08)
(-0.000157470168 0 -3.705150064e-08)
(-0.0001614817938 0 -5.677835332e-08)
(-0.0001614817938 0 -5.677835332e-08)
(-0.0001614817938 0 -5.677835332e-08)
(-0.0001614817938 0 -5.677835332e-08)
(-0.0001693279416 0 -8.784216392e-08)
(-0.0001693279416 0 -8.784216392e-08)
(-0.0001693279416 0 -8.784216392e-08)
(-0.0001693279416 0 -8.784216392e-08)
(-0.0001778385781 0 -9.165516379e-08)
(-0.0001778385781 0 -9.165516379e-08)
(-0.0001778385781 0 -9.165516379e-08)
(-0.0001778385781 0 -9.165516379e-08)
(-0.0001846016851 0 -8.331841334e-08)
(-0.0001846016851 0 -8.331841334e-08)
(-0.0001846016851 0 -8.331841334e-08)
(-0.0001892324946 0 -6.19277203e-08)
(-0.0001892324946 0 -6.19277203e-08)
(-0.0001913955758 0 -3.378618409e-08)
(-0.0001913955758 0 -3.378618409e-08)
(-0.0001913955758 0 -3.378618409e-08)
(-0.0001901892631 0 5.781658371e-08)
(-0.0001901892631 0 5.781658371e-08)
(-0.0001813654927 0 2.372791948e-07)
(-0.000163884542 0 4.480202206e-07)
(-0.000163884542 0 4.480202206e-07)
(-0.0001401236547 0 6.052858232e-07)
(-0.0001156045208 0 6.640045655e-07)
(-9.271966715e-05 0 6.961983857e-07)
(-7.367973275e-05 0 6.226155555e-07)
(-5.943015459e-05 0 6.718147574e-07)
(-4.318595875e-05 0 1.025406918e-06)
(-2.339989217e-05 0 1.152950636e-06)
(-8.697795745e-06 0 6.453194939e-07)
(-7.85026535e-06 0 -6.924875096e-07)
(-2.736141392e-05 0 -2.860508703e-06)
(-6.787426202e-05 0 -5.328010563e-06)
(-0.0001218442523 0 -7.101121201e-06)
(-0.000176397445 0 -7.359996803e-06)
(-0.00021923449 0 -5.77183596e-06)
(-0.0002420295037 0 -2.403040154e-06)
(-0.0002418637865 0 2.106140338e-06)
(-0.0002218789624 0 6.833924093e-06)
(-0.0001868790428 0 1.1437678e-05)
(-0.0001425806247 0 1.526547709e-05)
(-9.4721801e-05 0 1.796264596e-05)
(-4.991569204e-05 0 1.782654743e-05)
(-1.681006095e-05 0 1.30018775e-05)
(-1.774735635e-07 0 5.248805322e-06)
)
;
    }
    frontAndBack
    {
        type            empty;
    }
    wall_left
    {
        type            calculated;
        value           nonuniform List<vector> 
177
(
(-3.66375464e-05 0 -5.862491116e-05)
(-3.297643488e-05 0 -5.757964631e-05)
(-3.575222591e-07 0 -4.926991544e-05)
(1.626130015e-05 0 -8.082564531e-05)
(2.314671711e-05 0 -0.0001415805416)
(2.600990058e-05 0 -0.0002212170988)
(2.640712704e-05 0 -0.0003167291994)
(2.508731593e-05 0 -0.0004245067075)
(2.251236489e-05 0 -0.0005395924772)
(1.920114075e-05 0 -0.0006563126148)
(1.579172586e-05 0 -0.0007696298451)
(1.282153619e-05 0 -0.0008769032076)
(1.054793389e-05 0 -0.0009781787633)
(8.961360461e-06 0 -0.001075957416)
(7.838945393e-06 0 -0.001173290441)
(6.955527375e-06 0 -0.001272450627)
(6.181585154e-06 0 -0.001374087923)
(5.488559365e-06 0 -0.001478168617)
(4.886526771e-06 0 -0.001584679693)
(4.36734874e-06 0 -0.001694379247)
(3.886252613e-06 0 -0.001807246757)
(3.379500017e-06 0 -0.001922589324)
(2.799675528e-06 0 -0.002036442206)
(2.167894009e-06 0 -0.002142804612)
(2.167894009e-06 0 -0.002142804612)
(1.56482929e-06 0 -0.002235594191)
(1.054770367e-06 0 -0.002311740232)
(1.054770367e-06 0 -0.002311740232)
(6.835583327e-07 0 -0.002370665803)
(6.835583327e-07 0 -0.002370665803)
(6.835583327e-07 0 -0.002370665803)
(4.564857372e-07 0 -0.002416279879)
(4.564857372e-07 0 -0.002416279879)
(3.310137319e-07 0 -0.002454003259)
(3.310137319e-07 0 -0.002454003259)
(3.310137319e-07 0 -0.002454003259)
(2.576757947e-07 0 -0.002486834956)
(2.576757947e-07 0 -0.002486834956)
(2.576757947e-07 0 -0.002486834956)
(2.576757947e-07 0 -0.002486834956)
(2.223342013e-07 0 -0.002517835121)
(2.223342013e-07 0 -0.002517835121)
(2.223342013e-07 0 -0.002517835121)
(2.223342013e-07 0 -0.002517835121)
(1.921545326e-07 0 -0.002548766691)
(1.921545326e-07 0 -0.002548766691)
(1.921545326e-07 0 -0.002548766691)
(1.921545326e-07 0 -0.002548766691)
(1.526883716e-07 0 -0.002574108422)
(1.526883716e-07 0 -0.002574108422)
(1.526883716e-07 0 -0.002574108422)
(1.526883716e-07 0 -0.002574108422)
(9.388955615e-08 0 -0.002593947602)
(9.388955615e-08 0 -0.002593947602)
(9.388955615e-08 0 -0.002593947602)
(9.388955615e-08 0 -0.002593947602)
(-2.453197896e-08 0 -0.002603237776)
(-2.453197896e-08 0 -0.002603237776)
(-2.453197896e-08 0 -0.002603237776)
(-2.453197896e-08 0 -0.002603237776)
(-1.370100593e-07 0 -0.002596367409)
(-1.370100593e-07 0 -0.002596367409)
(-1.370100593e-07 0 -0.002596367409)
(-1.370100593e-07 0 -0.002596367409)
(-1.995867802e-07 0 -0.002578739772)
(-1.995867802e-07 0 -0.002578739772)
(-1.995867802e-07 0 -0.002578739772)
(-1.995867802e-07 0 -0.002578739772)
(-2.434347671e-07 0 -0.002555298919)
(-2.434347671e-07 0 -0.002555298919)
(-2.434347671e-07 0 -0.002555298919)
(-2.434347671e-07 0 -0.002555298919)
(-2.923827345e-07 0 -0.002526226518)
(-2.923827345e-07 0 -0.002526226518)
(-2.923827345e-07 0 -0.002526226518)
(-2.923827345e-07 0 -0.002526226518)
(-3.442805389e-07 0 -0.002490669461)
(-3.442805389e-07 0 -0.002490669461)
(-3.442805389e-07 0 -0.002490669461)
(-3.442805389e-07 0 -0.002490669461)
(-3.920366514e-07 0 -0.00244879201)
(-3.920366514e-07 0 -0.00244879201)
(-3.920366514e-07 0 -0.00244879201)
(-3.920366514e-07 0 -0.00244879201)
(-4.31468119e-07 0 -0.00240143774)
(-4.31468119e-07 0 -0.00240143774)
(-4.31468119e-07 0 -0.00240143774)
(-4.31468119e-07 0 -0.00240143774)
(-4.31468119e-07 0 -0.00240143774)
(-4.617613484e-07 0 -0.002349732474)
(-4.617613484e-07 0 -0.002349732474)
(-4.617613484e-07 0 -0.002349732474)
(-4.617613484e-07 0 -0.002349732474)
(-4.833291815e-07 0 -0.002294746375)
(-4.833291815e-07 0 -0.002294746375)
(-4.833291815e-07 0 -0.002294746375)
(-4.833291815e-07 0 -0.002294746375)
(-4.965893066e-07 0 -0.002237506817)
(-4.965893066e-07 0 -0.002237506817)
(-4.965893066e-07 0 -0.002237506817)
(-4.965893066e-07 0 -0.002237506817)
(-5.01841751e-07 0 -0.002178965724)
(-5.01841751e-07 0 -0.002178965724)
(-5.01841751e-07 0 -0.002178965724)
(-5.01841751e-07 0 -0.002178965724)
(-4.99422298e-07 0 -0.002120084624)
(-4.99422298e-07 0 -0.002120084624)
(-4.99422298e-07 0 -0.002120084624)
(-4.99422298e-07 0 -0.002120084624)
(-4.897146794e-07 0 -0.002061729617)
(-4.897146794e-07 0 -0.002061729617)
(-4.897146794e-07 0 -0.002061729617)
(-4.897146794e-07 0 -0.002061729617)
(-4.747611441e-07 0 -0.002004797912)
(-4.747611441e-07 0 -0.002004797912)
(-4.747611441e-07 0 -0.002004797912)
(-4.747611441e-07 0 -0.002004797912)
(-4.545110159e-07 0 -0.001949679616)
(-4.545110159e-07 0 -0.001949679616)
(-4.545110159e-07 0 -0.001949679616)
(-4.545110159e-07 0 -0.001949679616)
(-4.337122917e-07 0 -0.001897328568)
(-4.337122917e-07 0 -0.001897328568)
(-4.337122917e-07 0 -0.001897328568)
(-4.337122917e-07 0 -0.001897328568)
(-4.095708826e-07 0 -0.001846827504)
(-4.095708826e-07 0 -0.001846827504)
(-4.095708826e-07 0 -0.001846827504)
(-4.095708826e-07 0 -0.001846827504)
(-3.690271006e-07 0 -0.001797554196)
(-3.690271006e-07 0 -0.001797554196)
(-3.690271006e-07 0 -0.001797554196)
(-3.690271006e-07 0 -0.001797554196)
(-3.461658157e-07 0 -0.001753149707)
(-3.461658157e-07 0 -0.001753149707)
(-3.461658157e-07 0 -0.001753149707)
(-3.461658157e-07 0 -0.001753149707)
(-3.27549472e-07 0 -0.001716226245)
(-3.27549472e-07 0 -0.001716226245)
(-3.27549472e-07 0 -0.001716226245)
(-3.27549472e-07 0 -0.001716226245)
(-3.201100198e-07 0 -0.001686023071)
(-3.201100198e-07 0 -0.001686023071)
(-3.201100198e-07 0 -0.001686023071)
(-3.761131269e-07 0 -0.001659315917)
(-3.761131269e-07 0 -0.001659315917)
(-6.083849865e-07 0 -0.001628783198)
(-6.083849865e-07 0 -0.001628783198)
(-6.083849865e-07 0 -0.001628783198)
(-1.192306087e-06 0 -0.00158099411)
(-1.192306087e-06 0 -0.00158099411)
(-2.306043823e-06 0 -0.001498030482)
(-4.013013087e-06 0 -0.001362348666)
(-4.013013087e-06 0 -0.001362348666)
(-6.081094702e-06 0 -0.001164922722)
(-7.860916359e-06 0 -0.0009173525521)
(-8.534540924e-06 0 -0.0006546300355)
(-7.787930814e-06 0 -0.0004216853386)
(-6.066816693e-06 0 -0.0002479002952)
(-4.135135517e-06 0 -0.0001361969395)
(-2.511397336e-06 0 -7.243146898e-05)
(-1.337905046e-06 0 -3.959076913e-05)
(-5.383889387e-07 0 -2.480846531e-05)
(1.108260622e-08 0 -2.017129314e-05)
(3.843782655e-07 0 -2.109408569e-05)
(5.887426206e-07 0 -2.462753696e-05)
(6.142980607e-07 0 -2.866241084e-05)
(4.714073129e-07 0 -3.179982133e-05)
(1.861739605e-07 0 -3.330098374e-05)
(-2.128363924e-07 0 -3.291781064e-05)
(-7.003231471e-07 0 -3.071502833e-05)
(-1.253364428e-06 0 -2.693803745e-05)
(-1.844431736e-06 0 -2.193411541e-05)
(-2.42179077e-06 0 -1.611796449e-05)
(-2.847281431e-06 0 -1.002249575e-05)
(-2.826918182e-06 0 -4.556107386e-06)
(-1.997566901e-06 0 -3.496196352e-07)
)
;
    }
    wall_right
    {
        type            calculated;
        value           nonuniform List<vector> 
177
(
(9.602792018e-07 0 1.340619236e-07)
(1.612981297e-06 0 2.386580152e-06)
(1.890105138e-06 0 5.863870795e-06)
(1.853911596e-06 0 1.026848713e-05)
(1.633899507e-06 0 1.504178648e-05)
(1.310846939e-06 0 1.973943591e-05)
(9.284389158e-07 0 2.391093304e-05)
(5.217584247e-07 0 2.708254577e-05)
(1.294824594e-07 0 2.880842058e-05)
(-1.99705687e-07 0 2.878538623e-05)
(-4.065903967e-07 0 2.706115836e-05)
(-4.333768885e-07 0 2.432077241e-05)
(-2.455441078e-07 0 2.213469065e-05)
(1.72785619e-07 0 2.309533621e-05)
(8.772647493e-07 0 3.126036653e-05)
(1.992672623e-06 0 5.351256768e-05)
(3.651655706e-06 0 0.0001015501873)
(5.83033423e-06 0 0.0001926294907)
(8.114824212e-06 0 0.0003452989744)
(9.649980998e-06 0 0.0005664068875)
(9.63123421e-06 0 0.0008360053832)
(8.041382533e-06 0 0.00110996549)
(5.672382272e-06 0 0.001343921631)
(3.461349652e-06 0 0.001514839565)
(3.461349652e-06 0 0.001514839565)
(1.860557219e-06 0 0.001624485259)
(9.301063364e-07 0 0.001688219345)
(9.301063364e-07 0 0.001688219345)
(5.000257723e-07 0 0.001725586395)
(5.000257723e-07 0 0.001725586395)
(5.000257723e-07 0 0.001725586395)
(3.624459941e-07 0 0.001752681932)
(3.624459941e-07 0 0.001752681932)
(3.498150033e-07 0 0.001780718695)
(3.498150033e-07 0 0.001780718695)
(3.498150033e-07 0 0.001780718695)
(3.665400146e-07 0 0.001814282936)
(3.665400146e-07 0 0.001814282936)
(3.665400146e-07 0 0.001814282936)
(3.665400146e-07 0 0.001814282936)
(3.781525344e-07 0 0.001854742204)
(3.781525344e-07 0 0.001854742204)
(3.781525344e-07 0 0.001854742204)
(3.781525344e-07 0 0.001854742204)
(3.891370996e-07 0 0.001901769493)
(3.891370996e-07 0 0.001901769493)
(3.891370996e-07 0 0.001901769493)
(3.891370996e-07 0 0.001901769493)
(4.209698197e-07 0 0.001952285878)
(4.209698197e-07 0 0.001952285878)
(4.209698197e-07 0 0.001952285878)
(4.209698197e-07 0 0.001952285878)
(4.39802172e-07 0 0.002003085222)
(4.39802172e-07 0 0.002003085222)
(4.39802172e-07 0 0.002003085222)
(4.39802172e-07 0 0.002003085222)
(4.588508964e-07 0 0.002055339369)
(4.588508964e-07 0 0.002055339369)
(4.588508964e-07 0 0.002055339369)
(4.588508964e-07 0 0.002055339369)
(4.781463399e-07 0 0.002110196216)
(4.781463399e-07 0 0.002110196216)
(4.781463399e-07 0 0.002110196216)
(4.781463399e-07 0 0.002110196216)
(4.903017282e-07 0 0.002166607396)
(4.903017282e-07 0 0.002166607396)
(4.903017282e-07 0 0.002166607396)
(4.903017282e-07 0 0.002166607396)
(4.93561889e-07 0 0.002223817786)
(4.93561889e-07 0 0.002223817786)
(4.93561889e-07 0 0.002223817786)
(4.93561889e-07 0 0.002223817786)
(4.858429287e-07 0 0.002280475365)
(4.858429287e-07 0 0.002280475365)
(4.858429287e-07 0 0.002280475365)
(4.858429287e-07 0 0.002280475365)
(4.676179989e-07 0 0.002335359762)
(4.676179989e-07 0 0.002335359762)
(4.676179989e-07 0 0.002335359762)
(4.676179989e-07 0 0.002335359762)
(4.3955441e-07 0 0.002387251861)
(4.3955441e-07 0 0.002387251861)
(4.3955441e-07 0 0.002387251861)
(4.3955441e-07 0 0.002387251861)
(4.031323475e-07 0 0.002435101666)
(4.031323475e-07 0 0.002435101666)
(4.031323475e-07 0 0.002435101666)
(4.031323475e-07 0 0.002435101666)
(4.031323475e-07 0 0.002435101666)
(3.596098316e-07 0 0.002478001515)
(3.596098316e-07 0 0.002478001515)
(3.596098316e-07 0 0.002478001515)
(3.596098316e-07 0 0.002478001515)
(3.102145274e-07 0 0.002515171734)
(3.102145274e-07 0 0.002515171734)
(3.102145274e-07 0 0.002515171734)
(3.102145274e-07 0 0.002515171734)
(2.567550047e-07 0 0.002545986446)
(2.567550047e-07 0 0.002545986446)
(2.567550047e-07 0 0.002545986446)
(2.567550047e-07 0 0.002545986446)
(2.025020522e-07 0 0.002570096014)
(2.025020522e-07 0 0.002570096014)
(2.025020522e-07 0 0.002570096014)
(2.025020522e-07 0 0.002570096014)
(1.511948368e-07 0 0.002587673472)
(1.511948368e-07 0 0.002587673472)
(1.511948368e-07 0 0.002587673472)
(1.511948368e-07 0 0.002587673472)
(9.973520624e-08 0 0.002599105721)
(9.973520624e-08 0 0.002599105721)
(9.973520624e-08 0 0.002599105721)
(9.973520624e-08 0 0.002599105721)
(3.486004373e-08 0 0.002603712769)
(3.486004373e-08 0 0.002603712769)
(3.486004373e-08 0 0.002603712769)
(3.486004373e-08 0 0.002603712769)
(-5.075417242e-08 0 0.002598876462)
(-5.075417242e-08 0 0.002598876462)
(-5.075417242e-08 0 0.002598876462)
(-5.075417242e-08 0 0.002598876462)
(-1.270741834e-07 0 0.002583275461)
(-1.270741834e-07 0 0.002583275461)
(-1.270741834e-07 0 0.002583275461)
(-1.270741834e-07 0 0.002583275461)
(-1.756416379e-07 0 0.002560840512)
(-1.756416379e-07 0 0.002560840512)
(-1.756416379e-07 0 0.002560840512)
(-1.756416379e-07 0 0.002560840512)
(-2.326289697e-07 0 0.002530899455)
(-2.326289697e-07 0 0.002530899455)
(-2.326289697e-07 0 0.002530899455)
(-2.326289697e-07 0 0.002530899455)
(-2.872964375e-07 0 0.00249309597)
(-2.872964375e-07 0 0.00249309597)
(-2.872964375e-07 0 0.00249309597)
(-2.872964375e-07 0 0.00249309597)
(-3.515302147e-07 0 0.002452897145)
(-3.515302147e-07 0 0.002452897145)
(-3.515302147e-07 0 0.002452897145)
(-3.515302147e-07 0 0.002452897145)
(-4.360353201e-07 0 0.002410035866)
(-4.360353201e-07 0 0.002410035866)
(-4.360353201e-07 0 0.002410035866)
(-5.509032347e-07 0 0.002363990305)
(-5.509032347e-07 0 0.002363990305)
(-7.549473201e-07 0 0.002312571859)
(-7.549473201e-07 0 0.002312571859)
(-7.549473201e-07 0 0.002312571859)
(-1.098747774e-06 0 0.002250357176)
(-1.098747774e-06 0 0.002250357176)
(-1.574093285e-06 0 0.002173383605)
(-2.14022588e-06 0 0.002081661973)
(-2.14022588e-06 0 0.002081661973)
(-2.725186546e-06 0 0.001978318574)
(-3.261930906e-06 0 0.001868943272)
(-3.738838948e-06 0 0.00175893263)
(-4.188413199e-06 0 0.001651408104)
(-4.674384281e-06 0 0.001547340094)
(-5.217939727e-06 0 0.001446506601)
(-5.805132953e-06 0 0.001348975555)
(-6.40299744e-06 0 0.00125519833)
(-7.01731712e-06 0 0.001165867068)
(-7.80966226e-06 0 0.00108045667)
(-9.046328223e-06 0 0.0009963615837)
(-1.102430703e-05 0 0.0009097072377)
(-1.393513583e-05 0 0.0008166568039)
(-1.77114486e-05 0 0.0007147979997)
(-2.189631352e-05 0 0.0006048399044)
(-2.576162377e-05 0 0.0004908410846)
(-2.858803781e-05 0 0.0003787639072)
(-2.983900629e-05 0 0.0002746472012)
(-2.922106071e-05 0 0.000183531583)
(-2.656209729e-05 0 0.0001088112307)
(-2.156802727e-05 0 5.255228414e-05)
(-1.396826934e-05 0 1.660575543e-05)
(-5.31902324e-06 0 2.808299311e-08)
)
;
    }
}


// ************************************************************************* //
