/*--------------------------------*- C++ -*----------------------------------*\
| =========                 |                                                 |
| \\      /  F ield         | OpenFOAM: The Open Source CFD Toolbox           |
|  \\    /   O peration     | Version:  2206                                  |
|   \\  /    A nd           | Website:  www.openfoam.com                      |
|    \\/     M anipulation  |                                                 |
\*---------------------------------------------------------------------------*/
FoamFile
{
    version     2.0;
    format      ascii;
    arch        "LSB;label=32;scalar=64";
    class       volScalarField;
    location    "0";
    object      wallHeatFluxMean;
}
// * * * * * * * * * * * * * * * * * * * * * * * * * * * * * * * * * * * * * //

dimensions      [1 0 -3 0 0 0 0];

internalField   uniform 0;

boundaryField
{
    wall_bottom
    {
        type            calculated;
        value           nonuniform List<scalar> 
177
(
-0.6396851186
-2.178556179
-6.038001827
-21.29896999
-11.36076823
19.65191418
38.76511401
54.19264599
66.97619894
77.35821342
84.4819405
87.52907589
86.28160612
83.2488493
78.63680817
73.56578031
69.59565736
65.79295228
60.40985045
55.74283373
51.94449682
48.78616893
47.58543053
46.69437962
46.69437962
44.98625412
41.70643935
41.70643935
38.09899738
38.09899738
38.09899738
36.09030253
36.09030253
33.95147583
33.95147583
33.95147583
31.09461612
31.09461612
31.09461612
31.09461612
27.17847726
27.17847726
27.17847726
27.17847726
23.7890287
23.7890287
23.7890287
23.7890287
21.9906498
21.9906498
21.9906498
21.9906498
20.43871499
20.43871499
20.43871499
20.43871499
18.51835181
18.51835181
18.51835181
18.51835181
17.30917114
17.30917114
17.30917114
17.30917114
16.36167938
16.36167938
16.36167938
16.36167938
15.28663217
15.28663217
15.28663217
15.28663217
14.19074302
14.19074302
14.19074302
14.19074302
13.43303557
13.43303557
13.43303557
13.43303557
12.74881614
12.74881614
12.74881614
12.74881614
11.9368934
11.9368934
11.9368934
11.9368934
11.9368934
11.1817781
11.1817781
11.1817781
11.1817781
10.51839481
10.51839481
10.51839481
10.51839481
9.750655594
9.750655594
9.750655594
9.750655594
8.797599352
8.797599352
8.797599352
8.797599352
7.648446664
7.648446664
7.648446664
7.648446664
6.423176634
6.423176634
6.423176634
6.423176634
5.395982889
5.395982889
5.395982889
5.395982889
4.927692633
4.927692633
4.927692633
4.927692633
4.663154049
4.663154049
4.663154049
4.663154049
4.797912562
4.797912562
4.797912562
4.797912562
5.348535737
5.348535737
5.348535737
5.348535737
5.621494676
5.621494676
5.621494676
5.621494676
4.983898874
4.983898874
4.983898874
4.983898874
4.021387032
4.021387032
4.021387032
3.148516435
3.148516435
2.870381037
2.870381037
2.870381037
1.741475582
1.741475582
-0.5208534807
-2.781103045
-2.781103045
-4.490513596
-6.008081957
-9.404787967
-12.74799731
-15.09839909
-16.87883681
-15.62235686
-12.47262389
-9.516404204
-6.895403017
-4.752643016
-3.498337453
-2.189435612
-0.7448492486
0.365640724
1.117222814
2.285046031
4.067678041
8.015742392
8.159092611
3.971503611
1.97364496
0.6001874819
)
;
    }
    wall_top
    {
        type            calculated;
        value           nonuniform List<scalar> 
177
(
-2.349037159
-7.617673922
-15.02213172
-29.76844569
-30.05141134
-18.28194066
-13.83611014
-11.75433349
-11.92053186
-9.791168507
-6.312955834
-4.1119108
-1.74251084
-1.261050293
-0.9809739075
-0.3465249757
0.5030625654
1.142821877
1.032453411
0.6412992046
-0.4674934558
-1.936232661
-2.92292153
-4.224066938
-4.224066938
-5.939619318
-7.611764426
-7.611764426
-7.744347467
-7.744347467
-7.744347467
-6.825947554
-6.825947554
-6.850524428
-6.850524428
-6.850524428
-7.255146078
-7.255146078
-7.255146078
-7.255146078
-7.771093348
-7.771093348
-7.771093348
-7.771093348
-7.976253887
-7.976253887
-7.976253887
-7.976253887
-8.019731577
-8.019731577
-8.019731577
-8.019731577
-8.219814305
-8.219814305
-8.219814305
-8.219814305
-8.319089729
-8.319089729
-8.319089729
-8.319089729
-7.915338031
-7.915338031
-7.915338031
-7.915338031
-7.824279423
-7.824279423
-7.824279423
-7.824279423
-7.937975929
-7.937975929
-7.937975929
-7.937975929
-8.289280093
-8.289280093
-8.289280093
-8.289280093
-8.901699371
-8.901699371
-8.901699371
-8.901699371
-9.53153116
-9.53153116
-9.53153116
-9.53153116
-10.14442896
-10.14442896
-10.14442896
-10.14442896
-10.14442896
-10.42486012
-10.42486012
-10.42486012
-10.42486012
-10.57458782
-10.57458782
-10.57458782
-10.57458782
-10.75910588
-10.75910588
-10.75910588
-10.75910588
-11.23213246
-11.23213246
-11.23213246
-11.23213246
-12.72876285
-12.72876285
-12.72876285
-12.72876285
-14.1328388
-14.1328388
-14.1328388
-14.1328388
-15.284705
-15.284705
-15.284705
-15.284705
-16.54454135
-16.54454135
-16.54454135
-16.54454135
-18.29380921
-18.29380921
-18.29380921
-18.29380921
-19.72255529
-19.72255529
-19.72255529
-19.72255529
-21.50910376
-21.50910376
-21.50910376
-21.50910376
-25.40844334
-25.40844334
-25.40844334
-25.40844334
-30.0998075
-30.0998075
-30.0998075
-30.0998075
-33.44923083
-33.44923083
-33.44923083
-36.0016779
-36.0016779
-38.23546071
-38.23546071
-38.23546071
-41.26171452
-41.26171452
-43.81784461
-45.19209989
-45.19209989
-46.09820361
-47.84840885
-51.95520554
-56.06367806
-60.59619004
-66.33600156
-69.77680251
-73.59593822
-78.93766175
-83.74454595
-86.87248387
-88.19483298
-85.41064789
-77.78432854
-68.77286829
-59.06722681
-44.59556185
-25.28465572
7.119710449
17.49359361
2.705447587
-0.04699434526
-0.2011395795
)
;
    }
    frontAndBack
    {
        type            empty;
    }
    wall_left
    {
        type            calculated;
        value           nonuniform List<scalar> 
177
(
61.32554799
60.6698274
61.18149433
63.34060861
67.346419
73.07973279
80.18480993
88.16430568
96.44991242
104.4728416
111.7603564
118.0554003
123.2881426
127.6327456
131.1806247
133.9628838
136.0084716
137.3683709
138.0829925
138.3266708
138.2891989
138.0032825
137.3859888
136.2397454
136.2397454
134.4032837
131.8521014
131.8521014
128.7032446
128.7032446
128.7032446
125.0669351
125.0669351
121.0649864
121.0649864
121.0649864
116.6654603
116.6654603
116.6654603
116.6654603
111.9169201
111.9169201
111.9169201
111.9169201
106.9573422
106.9573422
106.9573422
106.9573422
102.5098681
102.5098681
102.5098681
102.5098681
98.77334213
98.77334213
98.77334213
98.77334213
95.27759928
95.27759928
95.27759928
95.27759928
91.90752106
91.90752106
91.90752106
91.90752106
88.6977455
88.6977455
88.6977455
88.6977455
85.68450162
85.68450162
85.68450162
85.68450162
82.85460364
82.85460364
82.85460364
82.85460364
80.17537065
80.17537065
80.17537065
80.17537065
77.60035184
77.60035184
77.60035184
77.60035184
75.09110972
75.09110972
75.09110972
75.09110972
75.09110972
72.62436464
72.62436464
72.62436464
72.62436464
70.19275985
70.19275985
70.19275985
70.19275985
67.79828871
67.79828871
67.79828871
67.79828871
65.45010807
65.45010807
65.45010807
65.45010807
63.15858046
63.15858046
63.15858046
63.15858046
60.93094322
60.93094322
60.93094322
60.93094322
58.7698992
58.7698992
58.7698992
58.7698992
56.67739187
56.67739187
56.67739187
56.67739187
54.66248595
54.66248595
54.66248595
54.66248595
52.69697521
52.69697521
52.69697521
52.69697521
50.70714965
50.70714965
50.70714965
50.70714965
48.85843306
48.85843306
48.85843306
48.85843306
47.31343494
47.31343494
47.31343494
47.31343494
46.01247767
46.01247767
46.01247767
44.89396648
44.89396648
43.85872751
43.85872751
43.85872751
42.74662676
42.74662676
41.35171368
39.44506544
39.44506544
36.81983938
33.35452934
29.23590677
24.91605283
20.88927587
17.46994573
14.75712035
12.71301389
11.24613698
10.26056407
9.680667934
9.461183351
9.587501486
10.06762708
10.92749121
12.20873607
13.96580061
16.26807395
19.1890712
22.77492222
26.98852297
31.64398654
36.38314149
)
;
    }
    wall_right
    {
        type            calculated;
        value           nonuniform List<scalar> 
177
(
-12.07607916
-10.85839606
-9.691686481
-8.693488758
-7.928635677
-7.417281128
-7.154537502
-7.1230992
-7.304569223
-7.679448387
-8.225111883
-8.922826567
-9.77555283
-10.83529146
-12.22036847
-14.09805862
-16.63432639
-19.93467483
-23.97330301
-28.50553414
-33.04926235
-37.05343858
-40.18650966
-42.46026439
-42.46026439
-44.08397602
-45.28648197
-45.28648197
-46.3009676
-46.3009676
-46.3009676
-47.31249317
-47.31249317
-48.45926504
-48.45926504
-48.45926504
-49.80548654
-49.80548654
-49.80548654
-49.80548654
-51.3924676
-51.3924676
-51.3924676
-51.3924676
-53.25319181
-53.25319181
-53.25319181
-53.25319181
-55.22017106
-55.22017106
-55.22017106
-55.22017106
-57.13860964
-57.13860964
-57.13860964
-57.13860964
-59.09403614
-59.09403614
-59.09403614
-59.09403614
-61.12314705
-61.12314705
-61.12314705
-61.12314705
-63.21608326
-63.21608326
-63.21608326
-63.21608326
-65.36689071
-65.36689071
-65.36689071
-65.36689071
-67.56131034
-67.56131034
-67.56131034
-67.56131034
-69.78556697
-69.78556697
-69.78556697
-69.78556697
-72.03067226
-72.03067226
-72.03067226
-72.03067226
-74.29507632
-74.29507632
-74.29507632
-74.29507632
-74.29507632
-76.59055243
-76.59055243
-76.59055243
-76.59055243
-78.93544925
-78.93544925
-78.93544925
-78.93544925
-81.35452014
-81.35452014
-81.35452014
-81.35452014
-83.87754028
-83.87754028
-83.87754028
-83.87754028
-86.53669571
-86.53669571
-86.53669571
-86.53669571
-89.35687848
-89.35687848
-89.35687848
-89.35687848
-92.34980978
-92.34980978
-92.34980978
-92.34980978
-95.50820494
-95.50820494
-95.50820494
-95.50820494
-98.84477055
-98.84477055
-98.84477055
-98.84477055
-102.4526181
-102.4526181
-102.4526181
-102.4526181
-106.6813083
-106.6813083
-106.6813083
-106.6813083
-111.3267735
-111.3267735
-111.3267735
-111.3267735
-115.751851
-115.751851
-115.751851
-115.751851
-119.8672122
-119.8672122
-119.8672122
-123.6772283
-123.6772283
-127.1668193
-127.1668193
-127.1668193
-130.2033093
-130.2033093
-132.6718293
-134.4903137
-134.4903137
-135.6656391
-136.3596185
-136.744759
-136.8852578
-136.7749448
-136.2561379
-135.1826165
-133.6090673
-131.5902378
-129.1869738
-126.2843628
-122.7446561
-118.2404186
-112.6009321
-105.8837635
-98.39935086
-90.67725732
-83.33247949
-76.96148294
-72.03969937
-68.79671966
-67.11034951
-66.4657927
)
;
    }
}


// ************************************************************************* //
