/*--------------------------------*- C++ -*----------------------------------*\
| =========                 |                                                 |
| \\      /  F ield         | OpenFOAM: The Open Source CFD Toolbox           |
|  \\    /   O peration     | Version:  2206                                  |
|   \\  /    A nd           | Website:  www.openfoam.com                      |
|    \\/     M anipulation  |                                                 |
\*---------------------------------------------------------------------------*/
FoamFile
{
    version     2.0;
    format      ascii;
    arch        "LSB;label=32;scalar=64";
    class       volScalarField;
    location    "0";
    object      yPlus;
}
// * * * * * * * * * * * * * * * * * * * * * * * * * * * * * * * * * * * * * //

dimensions      [0 0 0 0 0 0 0];

internalField   uniform 0;

boundaryField
{
    wall_bottom
    {
        type            calculated;
        value           nonuniform List<scalar> 
177
(
0.08977359432
0.09019186144
0.03815528349
0.05384689149
0.06720735476
0.07555436151
0.08120607393
0.08431694386
0.08551282758
0.08614413016
0.08788940446
0.09104211865
0.0935938391
0.09283518792
0.08802880237
0.08081921185
0.07477864099
0.07356433847
0.07911480552
0.09044698692
0.1039441807
0.116356719
0.1277034536
0.1366588476
0.1366588476
0.1416022611
0.141749994
0.141749994
0.1386641145
0.1386641145
0.1386641145
0.1338352473
0.1338352473
0.1270390574
0.1270390574
0.1270390574
0.1186742316
0.1186742316
0.1186742316
0.1186742316
0.1098328717
0.1098328717
0.1098328717
0.1098328717
0.10453613
0.10453613
0.10453613
0.10453613
0.1046712991
0.1046712991
0.1046712991
0.1046712991
0.109141504
0.109141504
0.109141504
0.109141504
0.1168377027
0.1168377027
0.1168377027
0.1168377027
0.1230369047
0.1230369047
0.1230369047
0.1230369047
0.1213554072
0.1213554072
0.1213554072
0.1213554072
0.114415066
0.114415066
0.114415066
0.114415066
0.1073702533
0.1073702533
0.1073702533
0.1073702533
0.1023957409
0.1023957409
0.1023957409
0.1023957409
0.09934898053
0.09934898053
0.09934898053
0.09934898053
0.09666960835
0.09666960835
0.09666960835
0.09666960835
0.09666960835
0.09419592113
0.09419592113
0.09419592113
0.09419592113
0.09229237738
0.09229237738
0.09229237738
0.09229237738
0.09051723311
0.09051723311
0.09051723311
0.09051723311
0.08650128638
0.08650128638
0.08650128638
0.08650128638
0.08118361309
0.08118361309
0.08118361309
0.08118361309
0.07575381905
0.07575381905
0.07575381905
0.07575381905
0.06833792683
0.06833792683
0.06833792683
0.06833792683
0.06070738849
0.06070738849
0.06070738849
0.06070738849
0.05891760381
0.05891760381
0.05891760381
0.05891760381
0.0690730131
0.0690730131
0.0690730131
0.0690730131
0.09594036579
0.09594036579
0.09594036579
0.09594036579
0.1363808653
0.1363808653
0.1363808653
0.1363808653
0.1783698435
0.1783698435
0.1783698435
0.1783698435
0.2081198345
0.2081198345
0.2081198345
0.2237587381
0.2237587381
0.2340018987
0.2340018987
0.2340018987
0.2455335508
0.2455335508
0.2609178749
0.2810782037
0.2810782037
0.305833115
0.3329147855
0.358424834
0.3754268132
0.3823270317
0.3712455915
0.3424581103
0.2990174436
0.2482189506
0.1979850112
0.1537372238
0.1174935524
0.08915420465
0.06782632074
0.0522339964
0.04105454209
0.03314120332
0.02758689095
0.02358922796
0.02015453848
0.01625558787
0.01153564717
0.006102150733
)
;
    }
    wall_top
    {
        type            calculated;
        value           nonuniform List<scalar> 
177
(
0.007745358753
0.01640875271
0.024847104
0.03255739347
0.03940691352
0.04588818768
0.05236790782
0.05890420866
0.06559979545
0.07287531587
0.08161337475
0.0928786391
0.1078281454
0.1274578155
0.1523431639
0.1820553982
0.2149285672
0.247348351
0.2746676391
0.29325348
0.3014408326
0.300344881
0.2921069997
0.2788893708
0.2788893708
0.262650929
0.2447323385
0.2447323385
0.2249860941
0.2249860941
0.2249860941
0.2007916177
0.2007916177
0.171618411
0.171618411
0.171618411
0.1422255719
0.1422255719
0.1422255719
0.1422255719
0.1147841511
0.1147841511
0.1147841511
0.1147841511
0.0930059503
0.0930059503
0.0930059503
0.0930059503
0.08221080794
0.08221080794
0.08221080794
0.08221080794
0.07947632938
0.07947632938
0.07947632938
0.07947632938
0.07924159042
0.07924159042
0.07924159042
0.07924159042
0.07907371568
0.07907371568
0.07907371568
0.07907371568
0.0791770062
0.0791770062
0.0791770062
0.0791770062
0.07909936092
0.07909936092
0.07909936092
0.07909936092
0.07834146242
0.07834146242
0.07834146242
0.07834146242
0.0768304475
0.0768304475
0.0768304475
0.0768304475
0.07662640467
0.07662640467
0.07662640467
0.07662640467
0.08041857275
0.08041857275
0.08041857275
0.08041857275
0.08041857275
0.08791689535
0.08791689535
0.08791689535
0.08791689535
0.09649352526
0.09649352526
0.09649352526
0.09649352526
0.1023983073
0.1023983073
0.1023983073
0.1023983073
0.1040074353
0.1040074353
0.1040074353
0.1040074353
0.1018062903
0.1018062903
0.1018062903
0.1018062903
0.09937430931
0.09937430931
0.09937430931
0.09937430931
0.0998474013
0.0998474013
0.0998474013
0.0998474013
0.1058544759
0.1058544759
0.1058544759
0.1058544759
0.1173958306
0.1173958306
0.1173958306
0.1173958306
0.1295222195
0.1295222195
0.1295222195
0.1295222195
0.1331056324
0.1331056324
0.1331056324
0.1331056324
0.1263235041
0.1263235041
0.1263235041
0.1263235041
0.1181353436
0.1181353436
0.1181353436
0.1181353436
0.1112495378
0.1112495378
0.1112495378
0.1043281231
0.1043281231
0.0998606699
0.0998606699
0.0998606699
0.09710007954
0.09710007954
0.09458207861
0.09174164357
0.09174164357
0.08826977411
0.08784845572
0.088206047
0.08641487646
0.08980265996
0.1044593117
0.1235781036
0.1328873359
0.1267640823
0.1022634095
0.06737829711
0.04241981325
0.06014510624
0.09118743606
0.1146426291
0.1271171049
0.1288728249
0.1223287406
0.1090480453
0.09050914245
0.06735676928
0.04157731692
0.01584228616
)
;
    }
    frontAndBack
    {
        type            empty;
    }
    wall_left
    {
        type            calculated;
        value           nonuniform List<scalar> 
177
(
0.089693607
0.09473169469
0.06348331755
0.05537929895
0.06891207294
0.08507691401
0.1015602462
0.1184755355
0.1362260412
0.1554409293
0.1767744626
0.2006632297
0.2272896136
0.2557513263
0.2852093573
0.3141486675
0.3393933195
0.3633604732
0.3852153637
0.4014733051
0.4225467102
0.443351036
0.4637633611
0.4675227619
0.4675227619
0.4484700091
0.3986810781
0.3986810781
0.362814401
0.362814401
0.362814401
0.3619750731
0.3619750731
0.3767591949
0.3767591949
0.3767591949
0.3919071552
0.3919071552
0.3919071552
0.3919071552
0.4007621843
0.4007621843
0.4007621843
0.4007621843
0.4050120301
0.4050120301
0.4050120301
0.4050120301
0.4069152441
0.4069152441
0.4069152441
0.4069152441
0.4075853426
0.4075853426
0.4075853426
0.4075853426
0.4077239639
0.4077239639
0.4077239639
0.4077239639
0.4076374305
0.4076374305
0.4076374305
0.4076374305
0.4069526679
0.4069526679
0.4069526679
0.4069526679
0.4051349903
0.4051349903
0.4051349903
0.4051349903
0.4021362749
0.4021362749
0.4021362749
0.4021362749
0.3982803919
0.3982803919
0.3982803919
0.3982803919
0.3947339056
0.3947339056
0.3947339056
0.3947339056
0.3917659362
0.3917659362
0.3917659362
0.3917659362
0.3917659362
0.3886640297
0.3886640297
0.3886640297
0.3886640297
0.3846083799
0.3846083799
0.3846083799
0.3846083799
0.3792111434
0.3792111434
0.3792111434
0.3792111434
0.3722324965
0.3722324965
0.3722324965
0.3722324965
0.3645697709
0.3645697709
0.3645697709
0.3645697709
0.3590181587
0.3590181587
0.3590181587
0.3590181587
0.3568212468
0.3568212468
0.3568212468
0.3568212468
0.3561860062
0.3561860062
0.3561860062
0.3561860062
0.3547214337
0.3547214337
0.3547214337
0.3547214337
0.3503870987
0.3503870987
0.3503870987
0.3503870987
0.3402750455
0.3402750455
0.3402750455
0.3402750455
0.3267844726
0.3267844726
0.3267844726
0.3267844726
0.3158053041
0.3158053041
0.3158053041
0.3158053041
0.3103646983
0.3103646983
0.3103646983
0.3083379118
0.3083379118
0.3067412899
0.3067412899
0.3067412899
0.3044613774
0.3044613774
0.2999996296
0.2914357615
0.2914357615
0.2775291996
0.2570048544
0.229665997
0.1975478167
0.1646661764
0.1355475076
0.1127975325
0.09668710978
0.08604389017
0.07933304104
0.07511488945
0.07211968582
0.06934754783
0.06616629021
0.06228591681
0.05763824245
0.05226248366
0.04623461451
0.03961786027
0.03241328852
0.02455903525
0.01624132457
0.007748832728
)
;
    }
    wall_right
    {
        type            calculated;
        value           nonuniform List<scalar> 
177
(
0.006097441966
0.01147014098
0.01637994618
0.02099663399
0.02549351278
0.02994582121
0.03409960561
0.03743472914
0.03929695974
0.0390842617
0.03660842629
0.03290824906
0.03181318531
0.03936455552
0.05733555252
0.08377846855
0.1171932828
0.156162346
0.1982829865
0.2401287562
0.2780876352
0.309796753
0.3346769097
0.3537234937
0.3537234937
0.3688506976
0.3813018153
0.3813018153
0.391404763
0.391404763
0.391404763
0.3992833342
0.3992833342
0.4042248159
0.4042248159
0.4042248159
0.4062960348
0.4062960348
0.4062960348
0.4062960348
0.4070662964
0.4070662964
0.4070662964
0.4070662964
0.4074908501
0.4074908501
0.4074908501
0.4074908501
0.408013457
0.408013457
0.408013457
0.408013457
0.4110985943
0.4110985943
0.4110985943
0.4110985943
0.4190905048
0.4190905048
0.4190905048
0.4190905048
0.4290757631
0.4290757631
0.4290757631
0.4290757631
0.4367029082
0.4367029082
0.4367029082
0.4367029082
0.4418828998
0.4418828998
0.4418828998
0.4418828998
0.4461521451
0.4461521451
0.4461521451
0.4461521451
0.450635537
0.450635537
0.450635537
0.450635537
0.4557347271
0.4557347271
0.4557347271
0.4557347271
0.4610118887
0.4610118887
0.4610118887
0.4610118887
0.4610118887
0.4658574359
0.4658574359
0.4658574359
0.4658574359
0.4696320077
0.4696320077
0.4696320077
0.4696320077
0.4721110339
0.4721110339
0.4721110339
0.4721110339
0.4738862769
0.4738862769
0.4738862769
0.4738862769
0.4755109894
0.4755109894
0.4755109894
0.4755109894
0.4770129964
0.4770129964
0.4770129964
0.4770129964
0.4778108214
0.4778108214
0.4778108214
0.4778108214
0.4771732433
0.4771732433
0.4771732433
0.4771732433
0.4752968039
0.4752968039
0.4752968039
0.4752968039
0.4722192194
0.4722192194
0.4722192194
0.4722192194
0.4648249518
0.4648249518
0.4648249518
0.4648249518
0.445946841
0.445946841
0.445946841
0.445946841
0.4346408962
0.4346408962
0.4346408962
0.4346408962
0.4582299269
0.4582299269
0.4582299269
0.5089889543
0.5089889543
0.526014292
0.526014292
0.526014292
0.5060025975
0.5060025975
0.4808050172
0.4710812241
0.4710812241
0.4527179782
0.4354500222
0.4251964965
0.4089718283
0.3927135632
0.3737179858
0.3507521506
0.3257542224
0.3006517846
0.2776309302
0.258766852
0.2438999751
0.231590551
0.2197554305
0.2064738627
0.1904988754
0.1713963017
0.1492820935
0.1246314366
0.097988193
0.06995756713
0.04200221225
0.0158616189
)
;
    }
}


// ************************************************************************* //
